<VTKFile type="UnstructuredGrid" version="0.1">
	<UnstructuredGrid>
		<Piece NumberOfPoints="13548" NumberOfCells="3387">
			<CellData>
				<DataArray type="Int32" Name="ghost" NumberOfComponents="1" Format="ascii">
1
1
1
1
1
1
1
1
1
1
1
1
1
1
1
1
1
1
1
1
1
1
1
1
1
1
1
1
1
1
1
1
1
1
1
1
1
1
1
1
1
1
1
1
1
1
1
1
1
1
1
1
1
1
1
1
1
1
0
0
0
0
0
0
0
0
0
0
0
0
0
0
0
0
0
0
0
0
1
1
0
0
0
0
0
0
0
0
0
0
0
0
0
0
0
0
0
0
0
0
0
0
0
0
0
0
0
0
0
0
0
0
0
1
1
0
0
0
0
0
0
0
0
0
0
0
0
0
0
0
0
0
0
0
0
1
1
0
0
0
0
0
0
0
0
0
0
0
0
0
0
0
0
0
0
0
0
0
0
0
0
0
0
0
0
0
0
0
0
0
1
1
0
0
0
0
0
0
0
0
0
0
0
0
0
0
0
0
0
0
0
0
1
1
0
0
0
0
0
0
0
0
0
0
0
0
0
0
0
0
0
0
0
0
0
0
0
0
0
0
0
0
0
0
0
0
0
1
1
0
0
0
0
0
0
0
0
0
0
0
0
0
0
0
0
0
0
0
0
1
1
0
0
0
0
0
0
0
0
0
0
0
0
0
0
0
0
0
0
0
0
0
0
0
0
0
0
0
0
0
0
0
0
0
1
1
0
0
0
0
0
0
0
0
0
0
0
0
0
0
0
0
0
0
0
0
1
1
0
0
0
0
0
0
0
0
0
0
0
0
0
0
0
0
0
0
0
0
0
0
0
0
0
0
0
0
0
0
0
0
0
1
1
0
0
0
0
0
0
0
0
0
0
0
0
0
0
0
0
0
0
0
0
1
1
0
0
0
0
0
0
0
0
0
0
0
0
0
0
0
0
0
0
0
0
0
0
0
0
0
0
0
0
0
0
0
0
0
1
1
0
0
0
0
0
0
0
0
0
0
0
0
0
0
0
0
0
0
0
0
1
1
0
0
0
0
0
0
0
0
0
0
0
0
0
0
0
0
0
0
0
0
0
0
0
0
0
0
0
0
0
0
0
0
0
1
1
0
0
0
0
0
0
0
0
0
0
0
0
0
0
0
0
0
0
0
0
1
1
0
0
0
0
0
0
0
0
0
0
0
0
0
0
0
0
0
0
0
0
0
0
0
0
0
0
0
0
0
0
0
0
0
1
1
0
0
0
0
0
0
0
0
0
0
0
0
0
0
0
0
0
0
0
0
1
1
0
0
0
0
0
0
0
0
0
0
0
0
0
0
0
0
0
0
0
0
0
0
0
0
0
0
0
0
0
0
0
0
0
1
1
0
0
0
0
0
0
0
0
0
0
0
0
0
0
0
0
0
0
0
0
1
1
0
0
0
0
0
0
0
0
0
0
0
0
0
0
0
0
0
0
0
0
0
0
0
0
0
0
0
0
0
0
0
0
0
1
1
0
0
0
0
0
0
0
0
0
0
0
0
0
0
0
0
0
0
0
0
1
1
0
0
0
0
0
0
0
0
0
0
0
0
0
0
0
0
0
0
0
0
0
0
0
0
0
0
0
0
0
0
0
0
0
1
1
0
0
0
0
0
0
0
0
0
0
0
0
0
0
0
0
0
0
0
0
1
1
0
0
0
0
0
0
0
0
0
0
0
0
0
0
0
0
0
0
0
0
0
0
0
0
0
0
0
0
0
0
0
0
0
1
1
0
0
0
0
0
0
0
0
0
0
0
0
0
0
0
0
0
0
0
0
1
1
0
0
0
0
0
0
0
0
0
0
0
0
0
0
0
0
0
0
0
0
0
0
0
0
0
0
0
0
0
0
0
0
0
1
1
0
0
0
0
0
0
0
0
0
0
0
0
0
0
0
0
0
0
0
0
1
1
0
0
0
0
0
0
0
0
0
0
0
0
0
0
0
0
0
0
0
0
0
0
0
0
0
0
0
0
0
0
0
0
0
1
1
0
0
0
0
0
0
0
0
0
0
0
0
0
0
0
0
0
0
0
0
1
1
0
0
0
0
0
0
0
0
0
0
0
0
0
0
0
0
0
0
0
0
0
0
0
0
0
0
0
0
0
0
0
0
0
1
1
0
0
0
0
0
0
0
0
0
0
0
0
0
0
0
0
0
0
0
0
1
1
0
0
0
0
0
0
0
0
0
0
0
0
0
0
0
0
0
0
0
0
0
0
0
0
0
0
0
0
0
0
0
0
0
1
1
0
0
0
0
0
0
0
0
0
0
0
0
0
0
0
0
0
0
0
0
1
1
0
0
0
0
0
0
0
0
0
0
0
0
0
0
0
0
0
0
0
0
0
0
0
0
0
0
0
0
0
0
0
0
0
1
1
0
0
0
0
0
0
0
0
0
0
0
0
0
0
0
0
0
0
0
0
1
1
0
0
0
0
0
0
0
0
0
0
0
0
0
0
0
0
0
0
0
0
0
0
0
0
0
0
0
0
0
0
0
0
0
1
1
0
0
0
0
0
0
0
0
0
0
0
0
0
0
0
0
0
0
0
0
1
1
0
0
0
0
0
0
0
0
0
0
0
0
0
0
0
0
0
0
0
0
0
0
0
0
0
0
0
0
0
0
0
0
0
1
1
0
0
0
0
0
0
0
0
0
0
0
0
0
0
0
0
0
0
0
0
1
1
0
0
0
0
0
0
0
0
0
0
0
0
0
0
0
0
0
0
0
0
0
0
0
0
0
0
0
0
0
0
0
0
0
1
1
0
0
0
0
0
0
0
0
0
0
0
0
0
0
0
0
0
0
0
0
1
1
0
0
0
0
0
0
0
0
0
0
0
0
0
0
0
0
0
0
0
0
0
0
0
0
0
0
0
0
0
0
0
0
0
1
1
0
0
0
0
0
0
0
0
0
0
0
0
0
0
0
0
0
0
0
0
1
1
0
0
0
0
0
0
0
0
0
0
0
0
0
0
0
0
0
0
0
0
0
0
0
0
0
0
0
0
0
0
0
0
0
1
1
0
0
0
0
0
0
0
0
0
0
0
0
0
0
0
0
0
0
0
0
1
1
0
0
0
0
0
0
0
0
0
0
0
0
0
0
0
0
0
0
0
0
0
0
0
0
0
0
0
0
0
0
0
0
0
1
1
0
0
0
0
0
0
0
0
0
0
0
0
0
0
0
0
0
0
0
0
1
1
0
0
0
0
0
0
0
0
0
0
0
0
0
0
0
0
0
0
0
0
0
0
0
0
0
0
0
0
0
0
0
0
0
1
1
0
0
0
0
0
0
0
0
0
0
0
0
0
0
0
0
0
0
0
0
0
1
1
0
0
0
0
0
0
0
0
0
0
0
0
0
0
0
0
0
0
0
0
0
0
0
0
0
0
0
0
0
0
0
0
0
0
1
1
0
0
0
0
0
0
0
0
0
0
0
0
0
0
0
0
0
0
0
0
0
0
0
0
0
0
0
0
0
0
0
0
0
0
0
0
0
0
0
0
0
0
0
0
0
0
0
0
0
0
0
0
0
0
0
0
0
1
1
0
0
0
0
0
0
0
0
0
0
0
0
0
0
0
0
0
0
0
0
0
0
0
0
0
0
0
0
0
0
0
0
0
0
0
0
0
0
0
0
0
0
0
0
0
0
0
0
0
0
0
0
0
0
0
0
0
1
1
0
0
0
0
0
0
0
0
0
0
0
0
0
0
0
0
0
0
0
0
0
0
0
0
0
0
0
0
0
0
0
0
0
0
0
0
0
0
0
0
0
0
0
0
0
0
0
0
0
0
0
0
0
0
0
0
0
1
1
0
0
0
0
0
0
0
0
0
0
0
0
0
0
0
0
0
0
0
0
0
0
0
0
0
0
0
0
0
0
0
0
0
0
0
0
0
0
0
0
0
0
0
0
0
0
0
0
0
0
0
0
0
0
0
0
0
1
1
0
0
0
0
0
0
0
0
0
0
0
0
0
0
0
0
0
0
0
0
0
0
0
0
0
0
0
0
0
0
0
0
0
0
0
0
0
0
0
0
0
0
0
0
0
0
0
0
0
0
0
0
0
0
0
0
0
1
1
0
0
0
0
0
0
0
0
0
0
0
0
0
0
0
0
0
0
0
0
0
0
0
0
0
0
0
0
0
0
0
0
0
0
0
0
0
0
0
0
0
0
0
0
0
0
0
0
0
0
0
0
0
0
0
0
0
1
1
0
0
0
0
0
0
0
0
0
0
0
0
0
0
0
0
0
0
0
0
0
0
0
0
0
0
0
0
0
0
0
0
0
0
0
0
0
0
0
0
0
0
0
0
0
0
0
0
0
0
0
0
0
0
0
0
0
1
1
0
0
0
0
0
0
0
0
0
0
0
0
0
0
0
0
0
0
0
0
0
0
0
0
0
0
0
0
0
0
0
0
0
0
0
0
0
0
0
0
0
0
0
0
0
0
0
0
0
0
0
0
0
0
0
0
0
1
1
0
0
0
0
0
0
0
0
0
0
0
0
0
0
0
0
0
0
0
0
0
0
0
0
0
0
0
0
0
0
0
0
0
0
0
0
0
0
0
0
0
0
0
0
0
0
0
0
0
0
0
0
0
0
0
0
0
1
1
0
0
0
0
0
0
0
0
0
0
0
0
0
0
0
0
0
0
0
0
0
0
0
0
0
0
0
0
0
0
0
0
0
0
0
0
0
0
0
0
0
0
0
0
0
0
0
0
0
0
0
0
0
0
0
0
0
1
1
0
0
0
0
0
0
0
0
0
0
0
0
0
0
0
0
0
0
0
0
0
1
1
0
0
0
0
0
0
0
0
0
0
0
0
0
0
0
0
0
0
0
0
0
0
0
0
0
0
0
0
0
0
0
0
0
0
1
1
0
0
0
0
0
0
0
0
0
0
0
0
0
0
0
0
0
0
0
0
1
1
0
0
0
0
0
0
0
0
0
0
0
0
0
0
0
0
0
0
0
0
0
0
0
0
0
0
0
0
0
0
0
0
0
1
1
0
0
0
0
0
0
0
0
0
0
0
0
0
0
0
0
0
0
0
0
1
1
0
0
0
0
0
0
0
0
0
0
0
0
0
0
0
0
0
0
0
0
0
0
0
0
0
0
0
0
0
0
0
0
0
1
1
0
0
0
0
0
0
0
0
0
0
0
0
0
0
0
0
0
0
0
0
1
1
0
0
0
0
0
0
0
0
0
0
0
0
0
0
0
0
0
0
0
0
0
0
0
0
0
0
0
0
0
0
0
0
0
1
1
0
0
0
0
0
0
0
0
0
0
0
0
0
0
0
0
0
0
0
0
1
1
0
0
0
0
0
0
0
0
0
0
0
0
0
0
0
0
0
0
0
0
0
0
0
0
0
0
0
0
0
0
0
0
0
1
1
0
0
0
0
0
0
0
0
0
0
0
0
0
0
0
0
0
0
0
0
1
1
0
0
0
0
0
0
0
0
0
0
0
0
0
0
0
0
0
0
0
0
0
0
0
0
0
0
0
0
0
0
0
0
0
1
1
0
0
0
0
0
0
0
0
0
0
0
0
0
0
0
0
0
0
0
0
1
1
0
0
0
0
0
0
0
0
0
0
0
0
0
0
0
0
0
0
0
0
0
0
0
0
0
0
0
0
0
0
0
0
0
1
1
0
0
0
0
0
0
0
0
0
0
0
0
0
0
0
0
0
0
0
0
1
1
0
0
0
0
0
0
0
0
0
0
0
0
0
0
0
0
0
0
0
0
0
0
0
0
0
0
0
0
0
0
0
0
0
1
1
0
0
0
0
0
0
0
0
0
0
0
0
0
0
0
0
0
0
0
0
1
1
0
0
0
0
0
0
0
0
0
0
0
0
0
0
0
0
0
0
0
0
0
0
0
0
0
0
0
0
0
0
0
0
0
1
1
0
0
0
0
0
0
0
0
0
0
0
0
0
0
0
0
0
0
0
0
1
1
0
0
0
0
0
0
0
0
0
0
0
0
0
0
0
0
0
0
0
0
0
0
0
0
0
0
0
0
0
0
0
0
0
1
1
0
0
0
0
0
0
0
0
0
0
0
0
0
0
0
0
0
0
0
0
1
1
0
0
0
0
0
0
0
0
0
0
0
0
0
0
0
0
0
0
0
0
0
0
0
0
0
0
0
0
0
0
0
0
0
1
1
0
0
0
0
0
0
0
0
0
0
0
0
0
0
0
0
0
0
0
0
1
1
0
0
0
0
0
0
0
0
0
0
0
0
0
0
0
0
0
0
0
0
0
0
0
0
0
0
0
0
0
0
0
0
0
1
1
0
0
0
0
0
0
0
0
0
0
0
0
0
0
0
0
0
0
0
0
1
1
0
0
0
0
0
0
0
0
0
0
0
0
0
0
0
0
0
0
0
0
0
0
0
0
0
0
0
0
0
0
0
0
0
1
1
0
0
0
0
0
0
0
0
0
0
0
0
0
0
0
0
0
0
0
0
1
1
0
0
0
0
0
0
0
0
0
0
0
0
0
0
0
0
0
0
0
0
0
0
0
0
0
0
0
0
0
0
0
0
0
1
1
0
0
0
0
0
0
0
0
0
0
0
0
0
0
0
0
0
0
0
0
1
1
0
0
0
0
0
0
0
0
0
0
0
0
0
0
0
0
0
0
0
0
0
0
0
0
0
0
0
0
0
0
0
0
0
1
1
0
0
0
0
0
0
0
0
0
0
0
0
0
0
0
0
0
0
0
0
1
1
0
0
0
0
0
0
0
0
0
0
0
0
0
0
0
0
0
0
0
0
0
0
0
0
0
0
0
0
0
0
0
0
0
1
1
0
0
0
0
0
0
0
0
0
0
0
0
0
0
0
0
0
0
0
0
1
1
0
0
0
0
0
0
0
0
0
0
0
0
0
0
0
0
0
0
0
0
0
0
0
0
0
0
0
0
0
0
0
0
0
1
1
0
0
0
0
0
0
0
0
0
0
0
0
0
0
0
0
0
0
0
0
1
1
0
0
0
0
0
0
0
0
0
0
0
0
0
0
0
0
0
0
0
0
0
0
0
0
0
0
0
0
0
0
0
0
0
1
1
0
0
0
0
0
0
0
0
0
0
0
0
0
0
0
0
0
0
0
0
1
1
0
0
0
0
0
0
0
0
0
0
0
0
0
0
0
0
0
0
0
0
0
0
0
0
0
0
0
0
0
0
0
0
0
1
1
0
0
0
0
0
0
0
0
0
0
0
0
0
0
0
0
0
0
0
0
1
1
0
0
0
0
0
0
0
0
0
0
0
0
0
0
0
0
0
0
0
0
0
0
0
0
0
0
0
0
0
0
0
0
0
1
1
0
0
0
0
0
0
0
0
0
0
0
0
0
0
0
0
0
0
0
0
1
1
0
0
0
0
0
0
0
0
0
0
0
0
0
0
0
0
0
0
0
0
0
0
0
0
0
0
0
0
0
0
0
0
0
1
1
0
0
0
0
0
0
0
0
0
0
0
0
0
0
0
0
0
0
0
0
1
1
0
0
0
0
0
0
0
0
0
0
0
0
0
0
0
0
0
0
0
0
0
0
0
0
0
0
0
0
0
0
0
0
0
1
1
1
1
1
1
1
1
1
1
1
1
1
1
1
1
1
1
1
1
1
1
1
1
1
1
1
1
1
1
1
1
1
1
1
1
1
1
1
1
1
1
1
1
1
1
1
1
1
1
1
1
1
1
1
1
1
1
				</DataArray>
				<DataArray type="Float64" Name="h" NumberOfComponents="1" Format="ascii">
1.0395124866
1.0409908962
1.0414610389
1.0423860284
1.0437360008
1.0454683162
1.0475296047
1.0498582913
1.0523874626
1.0550471971
1.0577669792
1.0604778549
1.0631138070
1.0656132931
1.0679204749
1.0699859233
1.0717675754
1.0732312270
1.0743504561
1.0751064559
1.0754873348
1.0754873348
1.3200610244
1.3199530042
1.3194688774
1.3185196211
1.3171419990
1.3153903935
1.3133346213
1.3110555587
1.3086407607
1.3061787579
1.3037531167
1.3014381482
1.2992960661
1.2973761038
1.2957153617
1.2943412362
1.2932750018
1.2925348021
1.2921385493
1.2921061904
1.2924592885
1.2932191626
1.2944033146
1.2960187245
1.2980541019
1.3004721162
1.3032022383
1.3061372008
1.3091349778
1.3120267688
1.3146307353
1.3167698619
1.3182909386
1.3190813138
1.3190813138
1.0409908962
1.0426289883
1.0430828083
1.0439754294
1.0452775469
1.0469474251
1.0489329830
1.0511743227
1.0536065942
1.0561622759
1.0587734977
1.0613741004
1.0639009109
1.0662951851
1.0685037520
1.0704796560
1.0721830676
1.0735817135
1.0746507597
1.0753726231
1.0757362306
1.0754873348
1.3199530042
1.3196715175
1.3191801694
1.3182152863
1.3168115545
1.3150208453
1.3129106910
1.3105606246
1.3080583825
1.3054946084
1.3029569930
1.3005257316
1.2982701984
1.2962473924
1.2945021080
1.2930687763
1.2919745516
1.2912419857
1.2908916984
1.2909444298
1.2914204554
1.2923375095
1.2937070033
1.2955273068
1.2977762468
1.3004040725
1.3033276697
1.3064288009
1.3095579953
1.3125439798
1.3152077449
1.3173794125
1.3189149578
1.3197100832
1.3190813138
1.0417219363
1.0433549394
1.0438026429
1.0446832917
1.0459680912
1.0476160375
1.0495759645
1.0517890163
1.0541914428
1.0567168100
1.0592982529
1.0618704748
1.0643709873
1.0667415369
1.0689292567
1.0708873418
1.0725760017
1.0739629378
1.0750232672
1.0757393558
1.0761000884
1.0758362327
1.3194600505
1.3191625801
1.3186814103
1.3177364332
1.3163614210
1.3146068795
1.3125385621
1.3102339004
1.3077783700
1.3052603904
1.3027656753
1.3003728760
1.2981503608
1.2961546808
1.2944306792
1.2930132045
1.2919300466
1.2912044644
1.2908577380
1.2909111498
1.2913853716
1.2922984057
1.2936618606
1.2954743035
1.2977138332
1.3003311037
1.3032435442
1.3063335600
1.3094523403
1.3124291833
1.3150854810
1.3172515599
1.3187834315
1.3195767468
1.3189376917
1.0431643916
1.0447858654
1.0452216491
1.0460789863
1.0473301104
1.0489354842
1.0508457591
1.0530041306
1.0553489937
1.0578160143
1.0603402497
1.0628580378
1.0653081750
1.0676333190
1.0697811606
1.0717051659
1.0733656104
1.0747301459
1.0757737991
1.0764788411
1.0768340754
1.0765411634
1.3184744818
1.3181448382
1.3176836577
1.3167777778
1.3154591845
1.3137757180
1.3117896629
1.3095743571
1.3072108706
1.3047832841
1.3023734440
1.3000569633
1.2979002102
1.2959588161
1.2942776736
1.2928924067
1.2918320163
1.2911211240
1.2907822900
1.2908378520
1.2913092544
1.2922150209
1.2935671416
1.2953645646
1.2975859172
1.3001826461
1.3030732525
1.3061414174
1.3092396490
1.3121983956
1.3148398695
1.3169948268
1.3185193740
1.3193090759
1.3186488428
1.0452792034
1.0468801873
1.0472988830
1.0481228467
1.0493258654
1.0508705956
1.0527103744
1.0547913856
1.0570551007
1.0594401518
1.0618842677
1.0643260217
1.0667059390
1.0689678815
1.0710602605
1.0729368800
1.0745580894
1.0758914699
1.0769119299
1.0776016140
1.0779492089
1.0776150191
1.3169988924
1.3166206617
1.3161884972
1.3153393833
1.3141027398
1.3125225818
1.3106562232
1.3085711391
1.3063420875
1.3040469171
1.3017618895
1.2995581906
1.2974992196
1.2956391742
1.2940229052
1.2926870535
1.2916622892
1.2909751482
1.2906500086
1.2907107167
1.2911798236
1.2920765962
1.2934135632
1.2951902074
1.2973859087
1.2999532592
1.3028123288
1.3058486854
1.3089168095
1.3118488935
1.3144684205
1.3166068442
1.3181204671
1.3189047683
1.3182112569
1.0480096513
1.0495779394
1.0499753397
1.0507577884
1.0519011391
1.0533709331
1.0551239847
1.0571102772
1.0592751168
1.0615607544
1.0639081071
1.0662583554
1.0685539924
1.0707402142
1.0727662043
1.0745861127
1.0761603527
1.0774564267
1.0784491197
1.0791204341
1.0794589025
1.0790742851
1.3150389042
1.3145956827
1.3142003469
1.3134233135
1.3122908035
1.3108420673
1.3091282326
1.3072094789
1.3051526982
1.3030279413
1.3009044268
1.2988476816
1.2969172153
1.2951652244
1.2936362998
1.2923681769
1.2913934819
1.2907410633
1.2904375314
1.2905086021
1.2909782002
1.2918665073
1.2931867023
1.2949389106
1.2971034357
1.2996343125
1.3024536251
1.3054494027
1.3084787416
1.3113761915
1.3139670042
1.3160836642
1.3175828384
1.3183599740
1.3176193075
1.0512832655
1.0528032232
1.0531763965
1.0539117186
1.0549875724
1.0563729854
1.0580289027
1.0599097286
1.0619651265
1.0641413522
1.0663827518
1.0686332245
1.0708372487
1.0729413167
1.0748953302
1.0766537436
1.0781770232
1.0794326098
1.0803951907
1.0810466243
1.0813752411
1.0809354942
1.3126053809
1.3120813559
1.3117289865
1.3110361048
1.3100253092
1.3087304488
1.3071956368
1.3054727690
1.3036197787
1.3016977801
1.2997678312
1.2978887853
1.2961154197
1.2944973117
1.2930784288
1.2918974759
1.2909891065
1.2903846807
1.2901132883
1.2902027480
1.2906785310
1.2915618305
1.2928665226
1.2945934161
1.2967238350
1.2992134758
1.3019868084
1.3049348445
1.3079179185
1.3107735735
1.3133293898
1.3154193019
1.3169006019
1.3176688355
1.3168648423
1.0550145689
1.0564675267
1.0568150867
1.0575007090
1.0585056633
1.0598029047
1.0613579494
1.0631299856
1.0650732657
1.0671381340
1.0692723152
1.0714222815
1.0735343094
1.0755560089
1.0774378692
1.0791345895
1.0806066996
1.0818216373
1.0827540520
1.0833856604
1.0837045067
1.0832107974
1.3097174722
1.3090983391
1.3087929192
1.3081920941
1.3073146865
1.3061888936
1.3048514660
1.3033455715
1.3017196513
1.3000252622
1.2983146050
1.2966391266
1.2950481523
1.2935879961
1.2923014919
1.2912279684
1.2904039277
1.2898631987
1.2896373898
1.2897564886
1.2902475567
1.2911327941
1.2924267318
1.2941308125
1.2962273806
1.2986739093
1.3013975279
1.3042926767
1.3072235175
1.3100312430
1.3125463934
1.3146048816
1.3160650029
1.3168226310
1.3159363954
1.0591095945
1.0604748258
1.0607971069
1.0614338111
1.0623692851
1.0635806162
1.0650380439
1.0667055812
1.0685419724
1.0705014203
1.0725347009
1.0745904941
1.0766165338
1.0785612838
1.0803756681
1.0820145952
1.0834387209
1.0846155942
1.0855199177
1.0861332515
1.0864431971
1.0859037117
1.3064029629
1.3056770320
1.3054199933
1.3049141979
1.3041748598
1.3032247170
1.3020933553
1.3008153812
1.2994298371
1.2979786882
1.2965050715
1.2950526412
1.2936647334
1.2923837704
1.2912508196
1.2903052684
1.2895850198
1.2891260553
1.2889622926
1.2891257471
1.2896449494
1.2905429691
1.2918348341
1.2935224593
1.2955890902
1.2979939662
1.3006670289
1.3035064977
1.3063809033
1.3091357594
1.3116052791
1.3136280092
1.3150637701
1.3158091154
1.3148186499
1.0634702028
1.0647263123
1.0650254119
1.0656173876
1.0664896298
1.0676232607
1.0689930444
1.0705674971
1.0723094143
1.0741763305
1.0761215153
1.0780953383
1.0800465729
1.0819242645
1.0836796622
1.0852679203
1.0866499620
1.0877936225
1.0886737667
1.0892717316
1.0895743918
1.0890049032
1.3026989967
1.3018583856
1.3016483204
1.3012350404
1.3006306646
1.2998531365
1.2989256478
1.2978750511
1.2967317446
1.2955286976
1.2943003209
1.2930825029
1.2919123011
1.2908276981
1.2898672847
1.2890697450
1.2884736668
1.2881165723
1.2880341956
1.2882601921
1.2888242365
1.2897499654
1.2910526048
1.2927342486
1.2947787887
1.2971470783
1.2997718864
1.3025554491
1.3053711435
1.3080694847
1.3104891557
1.3124721354
1.3138804575
1.3146118526
1.3134919554
1.0679989216
1.0691254132
1.0694050688
1.0699596464
1.0707792878
1.0718487109
1.0731466263
1.0746453584
1.0763109893
1.0781036100
1.0799782693
1.0818864438
1.0837775459
1.0856010061
1.0873083964
1.0888552660
1.0902030378
1.0913200603
1.0921814585
1.0927681780
1.0930658818
1.0924894454
1.2986528104
1.2976945408
1.2975270470
1.2971979827
1.2967172334
1.2960990755
1.2953616353
1.2945254477
1.2936136802
1.2926515463
1.2916656513
1.2906846154
1.2897392534
1.2888627157
1.2880903971
1.2874593641
1.2870079214
1.2867742169
1.2867949984
1.2871048891
1.2877341417
1.2887064610
1.2900368090
1.2917270187
1.2937612314
1.2961016134
1.2986836308
1.3014136495
1.3041702949
1.3068097612
1.3091760805
1.3111156121
1.3124934732
1.3132092316
1.3119315868
1.0726043042
1.0735830955
1.0738483939
1.0743754581
1.0751566249
1.0761794267
1.0774255748
1.0788701681
1.0804815397
1.0822213908
1.0840457709
1.0859067155
1.0877539847
1.0895373475
1.0912088526
1.0927247232
1.0940472006
1.0951453990
1.0959947505
1.0965754843
1.0968712822
1.0963168728
1.2943190425
1.2932458310
1.2931135674
1.2928547460
1.2924781995
1.2919960709
1.2914232423
1.2907759333
1.2900721045
1.2893310747
1.2885731540
1.2878207027
1.2870987162
1.2864353532
1.2858621561
1.2854135656
1.2851264166
1.2850382704
1.2851857620
1.2856034997
1.2863214793
1.2873627549
1.2887413863
1.2904583588
1.2924975297
1.2948219407
1.2973694869
1.3000506555
1.3027496399
1.3053289801
1.3076390107
1.3095315678
1.3108759108
1.3115742771
1.3101079144
1.0772044993
1.0780211498
1.0782781018
1.0787892560
1.0795483518
1.0805446564
1.0817616284
1.0831758394
1.0847566578
1.0864663739
1.0882612951
1.0900935952
1.0919132728
1.0936705855
1.0953183851
1.0968139685
1.0981207682
1.0992089027
1.1000540663
1.1006352386
1.1009329770
1.1004331953
1.2897581879
1.2885788229
1.2884717410
1.2882639831
1.2879647785
1.2875859853
1.2871414492
1.2866455428
1.2861135697
1.2855613766
1.2850050548
1.2844622341
1.2839529412
1.2835004789
1.2831320106
1.2828783077
1.2827733718
1.2828526899
1.2831513347
1.2837025974
1.2845350994
1.2856703000
1.2871205444
1.2888852521
1.2909473537
1.2932702200
1.2957937968
1.2984325793
1.3010765694
1.3035952986
1.3058464155
1.3076884624
1.3089960770
1.3096751688
1.3079874221
1.0817300796
1.0823745730
1.0826296074
1.0831371931
1.0838915038
1.0848822473
1.0860931664
1.0875008483
1.0890744105
1.0907757454
1.0925608039
1.0943816730
1.0961887018
1.0979329906
1.0995686709
1.1010545921
1.1023557561
1.1034434661
1.1042935096
1.1048828440
1.1051873080
1.1047755307
1.2850363041
1.2837654665
1.2836711685
1.2834908276
1.2832357200
1.2829194649
1.2825573349
1.2821646646
1.2817570676
1.2813498180
1.2809573764
1.2805946703
1.2802780474
1.2800264190
1.2798622227
1.2798115343
1.2799040270
1.2801713833
1.2806453639
1.2813563324
1.2823301466
1.2835855145
1.2851321053
1.2869669563
1.2890713630
1.2914084188
1.2939196752
1.2965234493
1.2991157245
1.3015736390
1.3037631987
1.3055509802
1.3068183820
1.3074761348
1.3055341950
1.0861258521
1.0865928774
1.0868523295
1.0873684474
1.0881347787
1.0891400730
1.0903668146
1.0917901232
1.0933776313
1.0950899782
1.0968823395
1.0987067150
1.1005141304
1.1022570456
1.1038914409
1.1053782116
1.1066842587
1.1077821587
1.1086474946
1.1092542000
1.1095712980
1.1092787854
1.2802221398
1.2788796030
1.2787838440
1.2786038734
1.2783547857
1.2780540578
1.2777209552
1.2773747820
1.2770347154
1.2767187194
1.2764426322
1.2762211408
1.2760686020
1.2760003178
1.2760338450
1.2761895828
1.2764912900
1.2769649151
1.2776369008
1.2785328084
1.2796741147
1.2810754556
1.2827427639
1.2846698400
1.2868356350
1.2892023649
1.2917127373
1.2942886782
1.2968322790
1.2992288610
1.3013538266
1.3030831590
1.3043064897
1.3049406200
1.3027138209
1.0903502207
1.0906390118
1.0909086803
1.0914443541
1.0922378944
1.0932757145
1.0945375530
1.0959956855
1.0976151870
1.0993547940
1.1011687119
1.1030090598
1.1048280234
1.1065800261
1.1082234749
1.1097217498
1.1110438850
1.1121637165
1.1130562299
1.1136911673
1.1140281305
1.1138816402
1.2753871145
1.2739963458
1.2738836073
1.2736748531
1.2733907849
1.2730547092
1.2726923880
1.2723301544
1.2719941528
1.2717085324
1.2714938182
1.2713672451
1.2713431811
1.2714343595
1.2716534627
1.2720142817
1.2725330137
1.2732277990
1.2741175697
1.2752210234
1.2765534920
1.2781241357
1.2799340735
1.2819730562
1.2842170627
1.2866269165
1.2891460987
1.2916999577
1.2941967984
1.2965306492
1.2985872934
1.3002534579
1.3014284793
1.3020365033
1.2994994009
1.0943739588
1.0944878052
1.0947726297
1.0953372103
1.0961707528
1.0972560922
1.0985689162
1.1000775002
1.1017435301
1.1035234294
1.1053704455
1.1072371698
1.1090774995
1.1108484130
1.1125112453
1.1140321837
1.1153825079
1.1165372118
1.1174702655
1.1181460108
1.1185115703
1.1185318554
1.2706072241
1.2691934023
1.2690474752
1.2687801373
1.2684193407
1.2679958446
1.2675441711
1.2671006492
1.2667018108
1.2663815849
1.2661686564
1.2660857927
1.2661495690
1.2663713558
1.2667590724
1.2673190047
1.2680581091
1.2689845658
1.2701075132
1.2714366474
1.2729793586
1.2747379559
1.2767077499
1.2788737645
1.2812085444
1.2836711698
1.2862056471
1.2887406400
1.2911907716
1.2934592296
1.2954430408
1.2970408729
1.2981631188
1.2987424594
1.2958785224
1.0981781005
1.0981236516
1.0984275477
1.0990284243
1.0999120294
1.1010566106
1.1024327775
1.1040039431
1.1057278531
1.1075584372
1.1094481464
1.1113504528
1.1132214798
1.1150212436
1.1167143578
1.1182699836
1.1196616300
1.1208652909
1.1218535736
1.1225843532
1.1229888940
1.1231901821
1.2659615125
1.2645491351
1.2643537232
1.2639991288
1.2635217496
1.2629607596
1.2623612684
1.2617723325
1.2612441741
1.2608240506
1.2605522896
1.2604602093
1.2605688312
1.2608894086
1.2614252326
1.2621741964
1.2631323379
1.2642957334
1.2656614773
1.2672281911
1.2689936386
1.2709520631
1.2730921714
1.2753938157
1.2778258931
1.2803456242
1.2828974878
1.2854134767
1.2878146501
1.2900137072
1.2919195791
1.2934438066
1.2945089221
1.2950571179
1.2918626914
1.1017504965
1.1015370305
1.1018628742
1.1025054736
1.1034465365
1.1046590104
1.1061077329
1.1077507217
1.1095415051
1.1114315228
1.1133726641
1.1153196500
1.1172312150
1.1190707109
1.1208061820
1.1224097500
1.1238570057
1.1251247545
1.1261840517
1.1269855992
1.1274413200
1.1278316115
1.2615319909
1.2601422907
1.2598815429
1.2594142743
1.2587854622
1.2580425555
1.2572424326
1.2564492435
1.2557299560
1.2551485112
1.2547602000
1.2546077670
1.2547187954
1.2551055726
1.2557668433
1.2566912212
1.2578622074
1.2592617555
1.2608728527
1.2626812054
1.2646735374
1.2668351119
1.2691475465
1.2715853926
1.2741139985
1.2766888910
1.2792551989
1.2817483991
1.2840961163
1.2862207702
1.2880435656
1.2894894476
1.2904937415
1.2910087661
1.2874966350
1.1050830217
1.1047217742
1.1050714962
1.1057594882
1.1067630847
1.1080495458
1.1095775956
1.1112996473
1.1131649791
1.1151226732
1.1171242962
1.1191260790
1.1210895671
1.1229815247
1.1247733552
1.1264399263
1.1279586035
1.1293067535
1.1304538729
1.1313433497
1.1318644733
1.1324463919
1.2574019291
1.2560503988
1.2557092389
1.2551097593
1.2543033037
1.2533437519
1.2523001016
1.2512534981
1.2502903492
1.2494942886
1.2489385513
1.2486798528
1.2487541655
1.2491757525
1.2499387955
1.2510217803
1.2523942235
1.2540222261
1.2558729801
1.2579178519
1.2601315419
1.2624898374
1.2649671722
1.2675330315
1.2701496451
1.2727713002
1.2753441808
1.2778075321
1.2800956581
1.2821407145
1.2838761663
1.2852403661
1.2861815093
1.2866621609
1.2828636902
1.1081685978
1.1076721904
1.1080469171
1.1087825008
1.1098518248
1.1112164007
1.1128288406
1.1146360464
1.1165832267
1.1186173379
1.1206898479
1.1227586504
1.1247881334
1.1267483492
1.1286137697
1.1303615527
1.1319702693
1.1334173704
1.1346708188
1.1356671938
1.1362703384
1.1370423262
1.2536469218
1.2523414410
1.2519055295
1.2511637061
1.2501664619
1.2489698318
1.2476543850
1.2463196820
1.2450738119
1.2440226012
1.2432596582
1.2428576685
1.2428623530
1.2432905721
1.2441318196
1.2453537331
1.2469107381
1.2487518606
1.2508274112
1.2530936054
1.2555127151
1.2580510703
1.2606762587
1.2633532978
1.2660420364
1.2686962244
1.2712636878
1.2736878070
1.2759096155
1.2778707685
1.2795165240
1.2807980270
1.2816757429
1.2821220158
1.2780869253
1.1109984682
1.1103804965
1.1107806449
1.1115647326
1.1127013564
1.1141465267
1.1158470664
1.1177447475
1.1197811071
1.1219013420
1.1240571095
1.1262081303
1.1283216377
1.1303707756
1.1323326337
1.1341858939
1.1359092393
1.1374790185
1.1388611052
1.1399861223
1.1406903228
1.1416483204
1.2503229639
1.2490630077
1.2485180243
1.2476381735
1.2464554223
1.2450206200
1.2434246873
1.2417866547
1.2402380220
1.2389086189
1.2379140581
1.2373442034
1.2372552296
1.2376668121
1.2385635652
1.2399018507
1.2416204830
1.2436509792
1.2459265454
1.2483882529
1.2509862480
1.2536779846
1.2564249637
1.2591886436
1.2619274514
1.2645954580
1.2671428064
1.2695173764
1.2716668485
1.2735418361
1.2750984275
1.2762992987
1.2771158834
1.2775292336
1.2733223508
1.1135619305
1.1128366908
1.1132619521
1.1140941188
1.1152978782
1.1168242582
1.1186149076
1.1206071387
1.1227394838
1.1249560073
1.1272091269
1.1294608726
1.1316816677
1.1338478473
1.1359387638
1.1379335097
1.1398086944
1.1415363001
1.1430767720
1.1443539153
1.1451747073
1.1463155239
1.2474469638
1.2462244967
1.2455544096
1.2445633681
1.2432256910
1.2415767074
1.2397165121
1.2377845569
1.2359369236
1.2343283641
1.2330970707
1.2323502718
1.2321545110
1.2325320883
1.2334626219
1.2348913177
1.2367417659
1.2389286485
1.2413689699
1.2439896594
1.2467298228
1.2495391708
1.2523742214
1.2551939707
1.2579564677
1.2606169766
1.2631285877
1.2654439290
1.2675170343
1.2693065931
1.2707780765
1.2719038352
1.2726643445
1.2730477606
1.2687428185
1.1158477495
1.1150300340
1.1154792537
1.1163574652
1.1176259770
1.1192315549
1.1211115207
1.1231996636
1.1254325060
1.1277540492
1.1301186776
1.1324920975
1.1348494143
1.1371715706
1.1394409942
1.1416364302
1.1437285339
1.1456759508
1.1474183855
1.1488543302
1.1497448530
1.1510757988
1.2449674823
1.2437711244
1.2429527616
1.2419138475
1.2404875552
1.2386816900
1.2366053475
1.2344195071
1.2323054631
1.2304428553
1.2289918975
1.2280763258
1.2277722580
1.2281042082
1.2290470401
1.2305358055
1.2324804905
1.2347809927
1.2373403243
1.2400733452
1.2429099727
1.2457937638
1.2486775631
1.2515190282
1.2542767857
1.2569080190
1.2593692088
1.2616177499
1.2636134595
1.2653218754
1.2667159860
1.2677754982
1.2684875420
1.2688453949
1.2645169235
1.1178482911
1.1169531859
1.1174242583
1.1183446098
1.1196727577
1.1213519946
1.1233162430
1.1254968303
1.1278294953
1.1302597119
1.1327459302
1.1352604779
1.1377872228
1.1403170778
1.1428418202
1.1453454786
1.1477933518
1.1501154248
1.1521738915
1.1536871941
1.1540134469
1.1555891746
1.2427674541
1.2416016657
1.2405275792
1.2395616865
1.2381750489
1.2363236939
1.2341250924
1.2317641741
1.2294491148
1.2273847574
1.2257526060
1.2246917384
1.2242869435
1.2245648334
1.2254965411
1.2270091565
1.2290020966
1.2313639563
1.2339872129
1.2367776734
1.2396585044
1.2425689562
1.2454595179
1.2482874707
1.2510127185
1.2535947983
1.2559937152
1.2581713354
1.2600923808
1.2617277015
1.2630556350
1.2640606516
1.2647339117
1.2650716545
1.2607866503
1.1195658729
1.1186084658
1.1190984303
1.1200552793
1.1214352569
1.1231788407
1.1252172734
1.1274801956
1.1299034642
1.1324353031
1.1350403902
1.1377015353
1.1404183591
1.1432044102
1.1460837582
1.1490877150
1.1522543628
1.1556334457
1.1592988101
1.1633711107
1.1680560039
1.1742036746
1.1968990827
1.1984289258
1.2353849768
1.2355741411
1.2365769254
1.2367599701
1.2359668782
1.2343823318
1.2322559531
1.2298534451
1.2274354455
1.2252425656
1.2234810560
1.2223058930
1.2218105558
1.2220244726
1.2229170759
1.2244108457
1.2263988534
1.2287629415
1.2313893390
1.2341783522
1.2370490660
1.2399382377
1.2427951116
1.2455772350
1.2482461162
1.2507637096
1.2530933178
1.2552006460
1.2570541598
1.2586282597
1.2599043136
1.2608688958
1.2615145683
1.2618383961
1.2576495970
1.1210157920
1.1200108029
1.1205161832
1.1215027917
1.1229249630
1.1247207298
1.1268188742
1.1291472844
1.1316414501
1.1342513309
1.1369461445
1.1397164503
1.1425730545
1.1455441057
1.1486710298
1.1520037813
1.1555975161
1.1595126138
1.1638209433
1.1686271336
1.1741454279
1.1811863797
1.1955140734
1.1968963019
1.2274161722
1.2318688987
1.2341384505
1.2349730244
1.2345699524
1.2332016411
1.2311684114
1.2287750618
1.2263127368
1.2240452307
1.2221956870
1.2209301892
1.2203486544
1.2204833667
1.2213041980
1.2227327731
1.2246604664
1.2269672137
1.2295373892
1.2322692934
1.2350803869
1.2379064271
1.2406961612
1.2434076574
1.2460039729
1.2484491974
1.2507093834
1.2527531647
1.2545513904
1.2560801433
1.2573215071
1.2582616227
1.2588920108
1.2592086125
1.2551505789
1.1222242399
1.1211857563
1.1217029500
1.1227122966
1.1241665066
1.1260013982
1.1281432842
1.1305178734
1.1330592800
1.1357174723
1.1384636359
1.1412924701
1.1442210518
1.1472855965
1.1505363951
1.1540315930
1.1578320762
1.1619999316
1.1666064752
1.1717650356
1.1777306066
1.1852319468
1.1967238895
1.2031461101
1.2248781408
1.2308420682
1.2335510220
1.2345576679
1.2342576320
1.2329516777
1.2309439279
1.2285432025
1.2260463003
1.2237229658
1.2218015300
1.2204518761
1.2197766776
1.2198103533
1.2205248649
1.2218442424
1.2236622129
1.2258609292
1.2283265225
1.2309580479
1.2336731393
1.2364074872
1.2391096538
1.2417381311
1.2442571778
1.2466325051
1.2488321685
1.2508266617
1.2525877818
1.2540914480
1.2553182844
1.2562517176
1.2568800929
1.2571965552
1.2532848594
1.1232226176
1.1221639937
1.1226894923
1.1237147648
1.1251912215
1.1270527658
1.1292233429
1.1316262154
1.1341933599
1.1368734231
1.1396376338
1.1424823290
1.1454278455
1.1485151053
1.1517998777
1.1553456851
1.1592178065
1.1634808340
1.1682071027
1.1735121020
1.1796466455
1.1871936416
1.1972879907
1.2058806381
1.2228682812
1.2299671866
1.2333249066
1.2346301430
1.2344805536
1.2332551384
1.2312864002
1.2288943222
1.2263805058
1.2240169840
1.2220333633
1.2206005752
1.2198229610
1.2197376222
1.2203205162
1.2215008093
1.2231776074
1.2252381198
1.2275725441
1.2300823403
1.2326862557
1.2353202544
1.2379326838
1.2404821726
1.2429337313
1.2452541385
1.2474126783
1.2493806319
1.2511293694
1.2526329387
1.2538685636
1.2548150012
1.2554556405
1.2557794621
1.2520125303
1.1240400800
1.1229739476
1.1235043207
1.1245389191
1.1260282880
1.1279049065
1.1300907385
1.1325067195
1.1350824431
1.1377645752
1.1405233109
1.1433552103
1.1462822331
1.1493483008
1.1526131275
1.1561445498
1.1600118804
1.1642823544
1.1690282098
1.1743596427
1.1805038415
1.1879270982
1.1972642374
1.2066336033
1.2210467162
1.2289353408
1.2329830511
1.2346844866
1.2347607493
1.2336690496
1.2317787770
1.2294263663
1.2269203396
1.2245354108
1.2225023092
1.2209931768
1.2201147919
1.2199082948
1.2203553621
1.2213920651
1.2229245015
1.2248461918
1.2270522237
1.2294469506
1.2319503816
1.2344986588
1.2370397533
1.2395321801
1.2419413649
1.2442347427
1.2463821825
1.2483548052
1.2501223393
1.2516554610
1.2529263212
1.2539073777
1.2545756104
1.2549147373
1.2512773264
1.1246978951
1.1236362506
1.1241679795
1.1252051937
1.1266981436
1.1285785947
1.1307672336
1.1331831948
1.1357539378
1.1384240583
1.1411622574
1.1439645597
1.1468535812
1.1498751494
1.1530918643
1.1565750081
1.1603973581
1.1646286321
1.1693410082
1.1746392039
1.1807310893
1.1880206353
1.1969794835
1.2065195021
1.2196729064
1.2279757111
1.2325037646
1.2345269033
1.2348095318
1.2338538354
1.2320533993
1.2297557656
1.2272738869
1.2248840044
1.2228176570
1.2212485516
1.2202866434
1.2199779884
1.2203106994
1.2212281036
1.2226433186
1.2244558794