<VTKFile type="UnstructuredGrid" version="0.1">
	<UnstructuredGrid>
		<Piece NumberOfPoints="13548" NumberOfCells="3387">
			<CellData>
				<DataArray type="Int32" Name="ghost" NumberOfComponents="1" Format="ascii">
1
1
1
1
1
1
1
1
1
1
1
1
1
1
1
1
1
1
1
1
1
1
1
1
1
1
1
1
1
1
1
1
1
1
1
1
1
1
1
1
1
1
1
1
1
1
1
1
1
1
1
1
1
1
1
1
1
1
0
0
0
0
0
0
0
0
0
0
0
0
0
0
0
0
0
0
0
0
1
1
0
0
0
0
0
0
0
0
0
0
0
0
0
0
0
0
0
0
0
0
0
0
0
0
0
0
0
0
0
0
0
0
0
1
1
0
0
0
0
0
0
0
0
0
0
0
0
0
0
0
0
0
0
0
0
1
1
0
0
0
0
0
0
0
0
0
0
0
0
0
0
0
0
0
0
0
0
0
0
0
0
0
0
0
0
0
0
0
0
0
1
1
0
0
0
0
0
0
0
0
0
0
0
0
0
0
0
0
0
0
0
0
1
1
0
0
0
0
0
0
0
0
0
0
0
0
0
0
0
0
0
0
0
0
0
0
0
0
0
0
0
0
0
0
0
0
0
1
1
0
0
0
0
0
0
0
0
0
0
0
0
0
0
0
0
0
0
0
0
1
1
0
0
0
0
0
0
0
0
0
0
0
0
0
0
0
0
0
0
0
0
0
0
0
0
0
0
0
0
0
0
0
0
0
1
1
0
0
0
0
0
0
0
0
0
0
0
0
0
0
0
0
0
0
0
0
1
1
0
0
0
0
0
0
0
0
0
0
0
0
0
0
0
0
0
0
0
0
0
0
0
0
0
0
0
0
0
0
0
0
0
1
1
0
0
0
0
0
0
0
0
0
0
0
0
0
0
0
0
0
0
0
0
1
1
0
0
0
0
0
0
0
0
0
0
0
0
0
0
0
0
0
0
0
0
0
0
0
0
0
0
0
0
0
0
0
0
0
1
1
0
0
0
0
0
0
0
0
0
0
0
0
0
0
0
0
0
0
0
0
1
1
0
0
0
0
0
0
0
0
0
0
0
0
0
0
0
0
0
0
0
0
0
0
0
0
0
0
0
0
0
0
0
0
0
1
1
0
0
0
0
0
0
0
0
0
0
0
0
0
0
0
0
0
0
0
0
1
1
0
0
0
0
0
0
0
0
0
0
0
0
0
0
0
0
0
0
0
0
0
0
0
0
0
0
0
0
0
0
0
0
0
1
1
0
0
0
0
0
0
0
0
0
0
0
0
0
0
0
0
0
0
0
0
1
1
0
0
0
0
0
0
0
0
0
0
0
0
0
0
0
0
0
0
0
0
0
0
0
0
0
0
0
0
0
0
0
0
0
1
1
0
0
0
0
0
0
0
0
0
0
0
0
0
0
0
0
0
0
0
0
1
1
0
0
0
0
0
0
0
0
0
0
0
0
0
0
0
0
0
0
0
0
0
0
0
0
0
0
0
0
0
0
0
0
0
1
1
0
0
0
0
0
0
0
0
0
0
0
0
0
0
0
0
0
0
0
0
1
1
0
0
0
0
0
0
0
0
0
0
0
0
0
0
0
0
0
0
0
0
0
0
0
0
0
0
0
0
0
0
0
0
0
1
1
0
0
0
0
0
0
0
0
0
0
0
0
0
0
0
0
0
0
0
0
1
1
0
0
0
0
0
0
0
0
0
0
0
0
0
0
0
0
0
0
0
0
0
0
0
0
0
0
0
0
0
0
0
0
0
1
1
0
0
0
0
0
0
0
0
0
0
0
0
0
0
0
0
0
0
0
0
1
1
0
0
0
0
0
0
0
0
0
0
0
0
0
0
0
0
0
0
0
0
0
0
0
0
0
0
0
0
0
0
0
0
0
1
1
0
0
0
0
0
0
0
0
0
0
0
0
0
0
0
0
0
0
0
0
1
1
0
0
0
0
0
0
0
0
0
0
0
0
0
0
0
0
0
0
0
0
0
0
0
0
0
0
0
0
0
0
0
0
0
1
1
0
0
0
0
0
0
0
0
0
0
0
0
0
0
0
0
0
0
0
0
1
1
0
0
0
0
0
0
0
0
0
0
0
0
0
0
0
0
0
0
0
0
0
0
0
0
0
0
0
0
0
0
0
0
0
1
1
0
0
0
0
0
0
0
0
0
0
0
0
0
0
0
0
0
0
0
0
1
1
0
0
0
0
0
0
0
0
0
0
0
0
0
0
0
0
0
0
0
0
0
0
0
0
0
0
0
0
0
0
0
0
0
1
1
0
0
0
0
0
0
0
0
0
0
0
0
0
0
0
0
0
0
0
0
1
1
0
0
0
0
0
0
0
0
0
0
0
0
0
0
0
0
0
0
0
0
0
0
0
0
0
0
0
0
0
0
0
0
0
1
1
0
0
0
0
0
0
0
0
0
0
0
0
0
0
0
0
0
0
0
0
1
1
0
0
0
0
0
0
0
0
0
0
0
0
0
0
0
0
0
0
0
0
0
0
0
0
0
0
0
0
0
0
0
0
0
1
1
0
0
0
0
0
0
0
0
0
0
0
0
0
0
0
0
0
0
0
0
1
1
0
0
0
0
0
0
0
0
0
0
0
0
0
0
0
0
0
0
0
0
0
0
0
0
0
0
0
0
0
0
0
0
0
1
1
0
0
0
0
0
0
0
0
0
0
0
0
0
0
0
0
0
0
0
0
1
1
0
0
0
0
0
0
0
0
0
0
0
0
0
0
0
0
0
0
0
0
0
0
0
0
0
0
0
0
0
0
0
0
0
1
1
0
0
0
0
0
0
0
0
0
0
0
0
0
0
0
0
0
0
0
0
1
1
0
0
0
0
0
0
0
0
0
0
0
0
0
0
0
0
0
0
0
0
0
0
0
0
0
0
0
0
0
0
0
0
0
1
1
0
0
0
0
0
0
0
0
0
0
0
0
0
0
0
0
0
0
0
0
1
1
0
0
0
0
0
0
0
0
0
0
0
0
0
0
0
0
0
0
0
0
0
0
0
0
0
0
0
0
0
0
0
0
0
1
1
0
0
0
0
0
0
0
0
0
0
0
0
0
0
0
0
0
0
0
0
1
1
0
0
0
0
0
0
0
0
0
0
0
0
0
0
0
0
0
0
0
0
0
0
0
0
0
0
0
0
0
0
0
0
0
1
1
0
0
0
0
0
0
0
0
0
0
0
0
0
0
0
0
0
0
0
0
1
1
0
0
0
0
0
0
0
0
0
0
0
0
0
0
0
0
0
0
0
0
0
0
0
0
0
0
0
0
0
0
0
0
0
1
1
0
0
0
0
0
0
0
0
0
0
0
0
0
0
0
0
0
0
0
0
0
1
1
0
0
0
0
0
0
0
0
0
0
0
0
0
0
0
0
0
0
0
0
0
0
0
0
0
0
0
0
0
0
0
0
0
0
1
1
0
0
0
0
0
0
0
0
0
0
0
0
0
0
0
0
0
0
0
0
0
0
0
0
0
0
0
0
0
0
0
0
0
0
0
0
0
0
0
0
0
0
0
0
0
0
0
0
0
0
0
0
0
0
0
0
0
1
1
0
0
0
0
0
0
0
0
0
0
0
0
0
0
0
0
0
0
0
0
0
0
0
0
0
0
0
0
0
0
0
0
0
0
0
0
0
0
0
0
0
0
0
0
0
0
0
0
0
0
0
0
0
0
0
0
0
1
1
0
0
0
0
0
0
0
0
0
0
0
0
0
0
0
0
0
0
0
0
0
0
0
0
0
0
0
0
0
0
0
0
0
0
0
0
0
0
0
0
0
0
0
0
0
0
0
0
0
0
0
0
0
0
0
0
0
1
1
0
0
0
0
0
0
0
0
0
0
0
0
0
0
0
0
0
0
0
0
0
0
0
0
0
0
0
0
0
0
0
0
0
0
0
0
0
0
0
0
0
0
0
0
0
0
0
0
0
0
0
0
0
0
0
0
0
1
1
0
0
0
0
0
0
0
0
0
0
0
0
0
0
0
0
0
0
0
0
0
0
0
0
0
0
0
0
0
0
0
0
0
0
0
0
0
0
0
0
0
0
0
0
0
0
0
0
0
0
0
0
0
0
0
0
0
1
1
0
0
0
0
0
0
0
0
0
0
0
0
0
0
0
0
0
0
0
0
0
0
0
0
0
0
0
0
0
0
0
0
0
0
0
0
0
0
0
0
0
0
0
0
0
0
0
0
0
0
0
0
0
0
0
0
0
1
1
0
0
0
0
0
0
0
0
0
0
0
0
0
0
0
0
0
0
0
0
0
0
0
0
0
0
0
0
0
0
0
0
0
0
0
0
0
0
0
0
0
0
0
0
0
0
0
0
0
0
0
0
0
0
0
0
0
1
1
0
0
0
0
0
0
0
0
0
0
0
0
0
0
0
0
0
0
0
0
0
0
0
0
0
0
0
0
0
0
0
0
0
0
0
0
0
0
0
0
0
0
0
0
0
0
0
0
0
0
0
0
0
0
0
0
0
1
1
0
0
0
0
0
0
0
0
0
0
0
0
0
0
0
0
0
0
0
0
0
0
0
0
0
0
0
0
0
0
0
0
0
0
0
0
0
0
0
0
0
0
0
0
0
0
0
0
0
0
0
0
0
0
0
0
0
1
1
0
0
0
0
0
0
0
0
0
0
0
0
0
0
0
0
0
0
0
0
0
0
0
0
0
0
0
0
0
0
0
0
0
0
0
0
0
0
0
0
0
0
0
0
0
0
0
0
0
0
0
0
0
0
0
0
0
1
1
0
0
0
0
0
0
0
0
0
0
0
0
0
0
0
0
0
0
0
0
0
1
1
0
0
0
0
0
0
0
0
0
0
0
0
0
0
0
0
0
0
0
0
0
0
0
0
0
0
0
0
0
0
0
0
0
0
1
1
0
0
0
0
0
0
0
0
0
0
0
0
0
0
0
0
0
0
0
0
1
1
0
0
0
0
0
0
0
0
0
0
0
0
0
0
0
0
0
0
0
0
0
0
0
0
0
0
0
0
0
0
0
0
0
1
1
0
0
0
0
0
0
0
0
0
0
0
0
0
0
0
0
0
0
0
0
1
1
0
0
0
0
0
0
0
0
0
0
0
0
0
0
0
0
0
0
0
0
0
0
0
0
0
0
0
0
0
0
0
0
0
1
1
0
0
0
0
0
0
0
0
0
0
0
0
0
0
0
0
0
0
0
0
1
1
0
0
0
0
0
0
0
0
0
0
0
0
0
0
0
0
0
0
0
0
0
0
0
0
0
0
0
0
0
0
0
0
0
1
1
0
0
0
0
0
0
0
0
0
0
0
0
0
0
0
0
0
0
0
0
1
1
0
0
0
0
0
0
0
0
0
0
0
0
0
0
0
0
0
0
0
0
0
0
0
0
0
0
0
0
0
0
0
0
0
1
1
0
0
0
0
0
0
0
0
0
0
0
0
0
0
0
0
0
0
0
0
1
1
0
0
0
0
0
0
0
0
0
0
0
0
0
0
0
0
0
0
0
0
0
0
0
0
0
0
0
0
0
0
0
0
0
1
1
0
0
0
0
0
0
0
0
0
0
0
0
0
0
0
0
0
0
0
0
1
1
0
0
0
0
0
0
0
0
0
0
0
0
0
0
0
0
0
0
0
0
0
0
0
0
0
0
0
0
0
0
0
0
0
1
1
0
0
0
0
0
0
0
0
0
0
0
0
0
0
0
0
0
0
0
0
1
1
0
0
0
0
0
0
0
0
0
0
0
0
0
0
0
0
0
0
0
0
0
0
0
0
0
0
0
0
0
0
0
0
0
1
1
0
0
0
0
0
0
0
0
0
0
0
0
0
0
0
0
0
0
0
0
1
1
0
0
0
0
0
0
0
0
0
0
0
0
0
0
0
0
0
0
0
0
0
0
0
0
0
0
0
0
0
0
0
0
0
1
1
0
0
0
0
0
0
0
0
0
0
0
0
0
0
0
0
0
0
0
0
1
1
0
0
0
0
0
0
0
0
0
0
0
0
0
0
0
0
0
0
0
0
0
0
0
0
0
0
0
0
0
0
0
0
0
1
1
0
0
0
0
0
0
0
0
0
0
0
0
0
0
0
0
0
0
0
0
1
1
0
0
0
0
0
0
0
0
0
0
0
0
0
0
0
0
0
0
0
0
0
0
0
0
0
0
0
0
0
0
0
0
0
1
1
0
0
0
0
0
0
0
0
0
0
0
0
0
0
0
0
0
0
0
0
1
1
0
0
0
0
0
0
0
0
0
0
0
0
0
0
0
0
0
0
0
0
0
0
0
0
0
0
0
0
0
0
0
0
0
1
1
0
0
0
0
0
0
0
0
0
0
0
0
0
0
0
0
0
0
0
0
1
1
0
0
0
0
0
0
0
0
0
0
0
0
0
0
0
0
0
0
0
0
0
0
0
0
0
0
0
0
0
0
0
0
0
1
1
0
0
0
0
0
0
0
0
0
0
0
0
0
0
0
0
0
0
0
0
1
1
0
0
0
0
0
0
0
0
0
0
0
0
0
0
0
0
0
0
0
0
0
0
0
0
0
0
0
0
0
0
0
0
0
1
1
0
0
0
0
0
0
0
0
0
0
0
0
0
0
0
0
0
0
0
0
1
1
0
0
0
0
0
0
0
0
0
0
0
0
0
0
0
0
0
0
0
0
0
0
0
0
0
0
0
0
0
0
0
0
0
1
1
0
0
0
0
0
0
0
0
0
0
0
0
0
0
0
0
0
0
0
0
1
1
0
0
0
0
0
0
0
0
0
0
0
0
0
0
0
0
0
0
0
0
0
0
0
0
0
0
0
0
0
0
0
0
0
1
1
0
0
0
0
0
0
0
0
0
0
0
0
0
0
0
0
0
0
0
0
1
1
0
0
0
0
0
0
0
0
0
0
0
0
0
0
0
0
0
0
0
0
0
0
0
0
0
0
0
0
0
0
0
0
0
1
1
0
0
0
0
0
0
0
0
0
0
0
0
0
0
0
0
0
0
0
0
1
1
0
0
0
0
0
0
0
0
0
0
0
0
0
0
0
0
0
0
0
0
0
0
0
0
0
0
0
0
0
0
0
0
0
1
1
0
0
0
0
0
0
0
0
0
0
0
0
0
0
0
0
0
0
0
0
1
1
0
0
0
0
0
0
0
0
0
0
0
0
0
0
0
0
0
0
0
0
0
0
0
0
0
0
0
0
0
0
0
0
0
1
1
0
0
0
0
0
0
0
0
0
0
0
0
0
0
0
0
0
0
0
0
1
1
0
0
0
0
0
0
0
0
0
0
0
0
0
0
0
0
0
0
0
0
0
0
0
0
0
0
0
0
0
0
0
0
0
1
1
0
0
0
0
0
0
0
0
0
0
0
0
0
0
0
0
0
0
0
0
1
1
0
0
0
0
0
0
0
0
0
0
0
0
0
0
0
0
0
0
0
0
0
0
0
0
0
0
0
0
0
0
0
0
0
1
1
0
0
0
0
0
0
0
0
0
0
0
0
0
0
0
0
0
0
0
0
1
1
0
0
0
0
0
0
0
0
0
0
0
0
0
0
0
0
0
0
0
0
0
0
0
0
0
0
0
0
0
0
0
0
0
1
1
1
1
1
1
1
1
1
1
1
1
1
1
1
1
1
1
1
1
1
1
1
1
1
1
1
1
1
1
1
1
1
1
1
1
1
1
1
1
1
1
1
1
1
1
1
1
1
1
1
1
1
1
1
1
1
1
				</DataArray>
				<DataArray type="Float64" Name="h" NumberOfComponents="1" Format="ascii">
1.0849617060
1.0825689981
1.0822925045
1.0817481665
1.0809533674
1.0799332009
1.0787196688
1.0773507035
1.0758682345
1.0743165963
1.0727406787
1.0711837017
1.0696856780
1.0682818960
1.0670019307
1.0658696106
1.0649030793
1.0641157303
1.0635173903
1.0631147603
1.0629122710
1.0629122710
1.2999669817
1.2995196918
1.2996126732
1.2998005306
1.3000864917
1.3004757344
1.3009740695
1.3015847813
1.3023052697
1.3031222318
1.3040067475
1.3049105465
1.3057632387
1.3064718281
1.3069233170
1.3069913481
1.3065478755
1.3054797386
1.3037092908
1.3012151003
1.2980474580
1.2943329479
1.2902626717
1.2860654880
1.2819726559
1.2781830530
1.2748390671
1.2720179563
1.2697375211
1.2679706668
1.2666637493
1.2657544418
1.2651849342
1.2649115777
1.2649115777
1.0825689981
1.0801760509
1.0799252050
1.0794313605
1.0787103528
1.0777850575
1.0766847012
1.0754440290
1.0741015078
1.0726978570
1.0712743134
1.0698704885
1.0685228719
1.0672633482
1.0661182380
1.0651082837
1.0642487557
1.0635504640
1.0630210158
1.0626653428
1.0624866472
1.0629122710
1.2995196918
1.2990533983
1.2991792091
1.2994315558
1.2998114303
1.3003209289
1.3009622595
1.3017350000
1.3026332244
1.3036411311
1.3047285042
1.3058471998
1.3069282845
1.3078811050
1.3085949606
1.3089442311
1.3087981509
1.3080353371
1.3065628634
1.3043369423
1.3013806181
1.2977930434
1.2937440804
1.2894533863
1.2851581892
1.2810775316
1.2773836002
1.2741869793
1.2715367666
1.2694316615
1.2678371181
1.2667036180
1.2659811798
1.2656304414
1.2649115777
1.0827519889
1.0803581390
1.0801112054
1.0796251179
1.0789155721
1.0780052260
1.0769230027
1.0757032517
1.0743839525
1.0730052467
1.0716077165
1.0702302616
1.0689086271
1.0676739536
1.0665518554
1.0655624434
1.0647204742
1.0640363935
1.0635176098
1.0631690035
1.0629938163
1.0634119710
1.2993039889
1.2988762637
1.2990103966
1.2992785685
1.2996801942
1.3002151888
1.3008831303
1.3016806716
1.3025988511
1.3036188902
1.3047078325
1.3058152235
1.3068704207
1.3077818256
1.3084386964
1.3087163890
1.3084862066
1.3076299128
1.3060586784
1.3037334520
1.3006821227
1.2970081342
1.2928844292
1.2885320845
1.2841880523
1.2800697873
1.2763472034
1.2731285829
1.2704611536
1.2683423614
1.2667369949
1.2655953029
1.2648673140
1.2645137631
1.2637738092
1.0831201627
1.0807254604
1.0804862216
1.0800153915
1.0793283915
1.0784474547
1.0774009107
1.0762223368
1.0749487598
1.0736191925
1.0722729366
1.0709474977
1.0696771578
1.0684915910
1.0674150119
1.0664662732
1.0656590984
1.0650031958
1.0645055648
1.0641709756
1.0640027464
1.0644064243
1.2988811900
1.2985284070
1.2986784560
1.2989768482
1.2994199040
1.3000032759
1.3007214329
1.3015653830
1.3025203477
1.3035618839
1.3046518545
1.3057354619
1.3067388729
1.3075687519
1.3081143384
1.3082529140
1.3078598065
1.3068228849
1.3050612592
1.3025450359
1.2993114293
1.2954720752
1.2912056987
1.2867359047
1.2822989005
1.2781089142
1.2743313981
1.2710702093
1.2683690618
1.2662231222
1.2645960509
1.2634377933
1.2626985177
1.2623392300
1.2615649628
1.0836783828
1.0812846834
1.0810566713
1.0806081028
1.0799540033
1.0791159915
1.0781215404
1.0770031129
1.0757963615
1.0745386697
1.0732674873
1.0720182981
1.0708232537
1.0697098795
1.0687003242
1.0678115647
1.0670557667
1.0664415093
1.0659751537
1.0656612887
1.0655033446
1.0658864476
1.2982687707
1.2980230873
1.2981951879
1.2985353435
1.2990353978
1.2996848808
1.3004709900
1.3013767839
1.3023793836
1.3034465417
1.3045330485
1.3055782266
1.3065039636
1.3072146485
1.3075996249
1.3075389962
1.3069138783
1.3056208856
1.3035904719
1.3008057689
1.2973171403
1.2932475903
1.2887836167
1.2841518684
1.2795869604
1.2752981446
1.2714443608
1.2681232317
1.2653737092
1.2631880567
1.2615286966
1.2603454840
1.2595890639
1.2592210217
1.2584130984
1.0844336953
1.0820453525
1.0818317450
1.0814117425
1.0807998679
1.0800169614
1.0790894128
1.0780482755
1.0769274647
1.0757623014
1.0745878866
1.0734371296
1.0723394542
1.0713196136
1.0703970641
1.0695863086
1.0688974273
1.0683374632
1.0679118917
1.0676250417
1.0674804963
1.0678381812
1.2974909849
1.2973786414
1.2975768473
1.2979662567
1.2985330855
1.2992592380
1.3001229676
1.3010976887
1.3021508355
1.3032409484
1.3043145514
1.3053041508
1.3061267171
1.3066840994
1.3068659623
1.3065560579
1.3056428352
1.3040339371
1.3016740578
1.2985625472
1.2947659007
1.2904207071
1.2857222607
1.2808999523
1.2761854290
1.2717810454
1.2678373334
1.2644442524
1.2616352283
1.2593994800
1.2576985041
1.2564826122
1.2557035044
1.2553238090
1.2544996345
1.0853951805
1.0830195181
1.0828230571
1.0824370620
1.0818754661
1.0811581978
1.0803103785
1.0793614129
1.0783431834
1.0772885941
1.0762299855
1.0751972281
1.0742165037
1.0733092420
1.0724916350
1.0717751438
1.0711672450
1.0706730312
1.0702968378
1.0700426615
1.0699143019
1.0702432284
1.2965771228
1.2966172132
1.2968429758
1.2972841008
1.2979203728
1.2987250820
1.2996665308
1.3007075767
1.3018052204
1.3029082052
1.3039543303
1.3048689320
1.3055638277
1.3059382815
1.3058825568
1.3052848121
1.3040421927
1.3020753447
1.2993456238
1.2958710975
1.2917364494
1.2870929687
1.2821446427
1.2771223488
1.2722527756
1.2677292528
1.2636921650
1.2602227680
1.2573486785
1.2550563977
1.2533072019
1.2520527067
1.2512464584
1.2508527245
1.2500454519
1.0865742622
1.0842217844
1.0840447173
1.0836971930
1.0831924893
1.0825495222
1.0817920061
1.0809475165
1.0800456785
1.0791167079
1.0781898628
1.0772916033
1.0764444469
1.0756660302
1.0749687751
1.0743605796
1.0738458224
1.0734272420
1.0731077886
1.0728910820
1.0727812451
1.0730797302
1.2955600847
1.2957639375
1.2960156880
1.2965052039
1.2972055231
1.2980810188
1.2990898707
1.3001843822
1.3013112852
1.3024097650
1.3034091027
1.3042275828
1.3047719142
1.3049388578
1.3046195763
1.3037073512
1.3021092855
1.2997607973
1.2966419306
1.2927913061
1.2883128973
1.2833726424
1.2781819291
1.2729708827
1.2679586390
1.2633271977
1.2592052258
1.2556646008
1.2527272645
1.2503777004
1.2485779576
1.2472820030
1.2464461469
1.2460369655
1.2452909642
1.0879839072
1.0856682719
1.0855123180
1.0852066824
1.0847639443
1.0842019417
1.0835428897
1.0828124128
1.0820377244
1.0812461593
1.0804636585
1.0797129915
1.0790126804
1.0783761873
1.0778117359
1.0773232023
1.0769114175
1.0765763930
1.0763194825
1.0761439355
1.0760543772
1.0763224075
1.2944726926
1.2948439324
1.2951168621
1.2956453008
1.2963958469
1.2973244892
1.2983800706
1.2995053239
1.3006377752
1.3017080245
1.3026375632
1.3033380488
1.3037112641
1.3036515855
1.3030513820
1.3018097862
1.2998451133
1.2971092147
1.2936025185
1.2893853812
1.2845811864
1.2793692817
1.2739659996
1.2685975828
1.2634725444
1.2587591877
1.2545731191
1.2509765119
1.2479860995
1.2455852938
1.2437380544
1.2424018104
1.2415365694
1.2411118802
1.2404760020
1.0896379594
1.0873757236
1.0872420582
1.0869806533
1.0866033706
1.0861269387
1.0855720282
1.0849622459
1.0843223042
1.0836765367
1.0830474118
1.0824538119
1.0819100217
1.0814250373
1.0810025447
1.0806420181
1.0803403571
1.0800945262
1.0799041254
1.0797721163
1.0797039002
1.0799430405
1.2933448351
1.2938801187
1.2941661227
1.2947178366
1.2954964680
1.2964511002
1.2975230503
1.2986474412
1.2997544766
1.3007677404
1.3016020180
1.3021629164
1.3023474972
1.3020478574
1.3011578987
1.2995834005
1.2972552035
1.2941431791
1.2902694825
1.2857166707
1.2806266136
1.2751896477
1.2696235471
1.2641468595
1.2589541745
1.2541978741
1.2499795003
1.2463515525
1.2433262815
1.2408870983
1.2390010181
1.2376299783
1.2367385266
1.2362997678
1.2358201412
1.0915508689
1.0893610255
1.0892502816
1.0890343776
1.0887244628
1.0883361616
1.0878885988
1.0874033501
1.0869025949
1.0864076094
1.0859373017
1.0855065469
1.0851252337
1.0847976935
1.0845228334
1.0842954431
1.0841081915
1.0839547448
1.0838328546
1.0837453573
1.0836988056
1.0839120282
1.2922017380
1.2928920894
1.2931798156
1.2937331427
1.2945097637
1.2954543446
1.2965035228
1.2975876951
1.2986323392
1.2995560532
1.3002682255
1.3006690399
1.3006510148
1.3001040566
1.2989239759
1.2970240929
1.2943491362
1.2908884314
1.2866867085
1.2818483117
1.2765315379
1.2709341588
1.2652710475
1.2597488812
1.2545451278
1.2497944227
1.2455837196
1.2419562623
1.2389207538
1.2364617103
1.2345502573
1.2331537297
1.2322418944
1.2317918667
1.2315059776
1.0937362368
1.0916396120
1.0915518978
1.0913817288
1.0911395727
1.0908399899
1.0905006011
1.0901409848
1.0897808059
1.0894382798
1.0891287242
1.0888629522
1.0886463784
1.0884785680
1.0883535196
1.0882611712
1.0881897639
1.0881294884
1.0880762065
1.0880328521
1.0880075868
1.0881989797
1.2910605984
1.2918931542
1.2921682026
1.2926959079
1.2934331842
1.2943237698
1.2953034450
1.2963015947
1.2972421705
1.2980411764
1.2986040709
1.2988262689
1.2985959066
1.2978008062
1.2963391327
1.2941327058
1.2911414343
1.2873751674
1.2829012978
1.2778444405
1.2723760438
1.2666967551
1.2610136824
1.2555175005
1.2503658383
1.2456744276
1.2415157276
1.2379245618
1.2349072028
1.2324503617
1.2305301871
1.2291201044
1.2281955871
1.2277380682
1.2276711975
1.0962053654
1.0942238905
1.0941588189
1.0940336418
1.0938582020
1.0936460708
1.0934134470
1.0931779875
1.0929569036
1.0927653891
1.0926151902
1.0925130644
1.0924599563
1.0924506721
1.0924743042
1.0925159099
1.0925592212
1.0925908434
1.0926047219
1.0926041084
1.0925992396
1.0927735990
1.2899293019
1.2908891648
1.2911343502
1.2916041739
1.2922583484
1.2930441064
1.2939010768
1.2947620832
1.2955532846
1.2961908158
1.2965778478
1.2966057565
1.2961585013
1.2951219781
1.2933971903
1.2909153463
1.2876525002
1.2836393803
1.2789650177
1.2737714505
1.2682387858
1.2625652389
1.2569451935
1.2515496973
1.2465146777
1.2419366981
1.2378745233
1.2343558195
1.2313856987
1.2289541158
1.2270430014
1.2256323679
1.2247037001
1.2242429193
1.2244071397
1.0989661899
1.0971220701
1.0970788028
1.0969969855
1.0968859178
1.0967582888
1.0966289931
1.0965138770
1.0964277926
1.0963829879
1.0963877007
1.0964447037
1.0965505721
1.0966954934
1.0968638194
1.0970358658
1.0971909019
1.0973118764
1.0973907282
1.0974311178
1.0974456755
1.0976079369
1.2888077778
1.2898796236
1.2900752247
1.2904503952
1.2909720001
1.2915960109
1.2922713888
1.2929395204
1.2935330374
1.2939713194
1.2941571651
1.2939788259
1.2933164121
1.2920541080
1.2900961636
1.2873837345
1.2839092655
1.2797235587
1.2749347828
1.2696980780
1.2641966596
1.2586206635
1.2531472135
1.2479250710
1.2430677542
1.2386534159
1.2347286456
1.2313156005
1.2284196169
1.2260348816
1.2241497201
1.2227510575
1.2218265420
1.2213666438
1.2217619716
1.1020211650
1.1003360066
1.1003133188
1.1002724679
1.1002223125
1.1001747932
1.1001436452
1.1001430415
1.1001855948
1.1002807134
1.1004332372
1.1006421047
1.1008997455
1.1011920418
1.1014989788
1.1017964747
1.1020595195
1.1022673315
1.1024095700
1.1024900715
1.1025237648
1.1026781728
1.2876881594
1.2888572221
1.2889813134
1.2892212263
1.2895559873
1.2899562083
1.2903863222
1.2908020403
1.2911473094
1.2913483665
1.2913099661
1.2909184546
1.2900505948
1.2885890619
1.2864414565
1.2835587164
1.2799487063
1.2756798704
1.2708752706
1.2656974078
1.2603263715
1.2549387954
1.2496909832
1.2447081083
1.2400819064
1.2358739087
1.2321206908
1.2288408474
1.2260413766
1.2237216057
1.2218767345
1.2205007858
1.2195876073
1.2191321984
1.2197490159
1.1053651242
1.1038590100
1.1038553750
1.1038525010
1.1038589221
1.1038859793
1.1039464090
1.1040528623
1.1042158499
1.1044420779
1.1047331610
1.1050844622
1.1054846602
1.1059158758
1.1063543688
1.1067722552
1.1071405751
1.1074346826
1.1076413511
1.1077637678
1.1078182340
1.1079672278
1.2865578231
1.2878098766
1.2878387621
1.2878998922
1.2879899302
1.2881004597
1.2882180417
1.2883190868
1.2883643504
1.2882911705
1.2880091406
1.2874043219
1.2863507929
1.2847297394
1.2824515585
1.2794755841
1.2758223912
1.2715736389
1.2668612477
1.2618482442
1.2567052728
1.2515909219
1.2466385952
1.2419501855
1.2375976274
1.2336285341
1.2300721151
1.2269455181
1.2242588168
1.2220172781
1.2202233285
1.2188781580
1.2179817622
1.2175335942
1.2183555067
1.1089836045
1.1076741443
1.1076878444
1.1077195775
1.1077776715
1.1078730183
1.1080175146
1.1082224424
1.1084963610
1.1088434531
1.1092623700
1.1097453159
1.1102778483
1.1108391744
1.1114028082
1.1119379591
1.1124122052
1.1127967829
1.1130744668
1.1132460513
1.1133268549
1.1134697142
1.2854050255
1.2867251218
1.2866339386
1.2864711669
1.2862567453
1.2860096646
1.2857455982
1.2854686006
1.2851624401
1.2847805433
1.2842408887
1.2834313085
1.2822239248
1.2804979959
1.2781650594
1.2751897224
1.2716004035
1.2674854327
1.2629780442
1.2582344834
1.2534102940
1.2486429846
1.2440428024
1.2396903236
1.2356408656
1.2319315116
1.2285870276
1.2256252475
1.2230606244
1.2209050223
1.2191683176
1.2178588356
1.2169825997
1.2165433999
1.2175499699
1.1128505777
1.1117520005
1.1117812655
1.1118441239
1.1119488038
1.1121058803
1.1123265507
1.1126208707
1.1129956132
1.1134526774
1.1139881445
1.1145916956
1.1152467066
1.1159307003
1.1166158285
1.1172696391
1.1178569100
1.1183443503
1.1187089773
1.1189462250
1.1190659147
1.1191973348
1.2842209999
1.2855910410
1.2853547717
1.2849236940
1.2843463097
1.2836750514
1.2829617124
1.2822453685
1.2815396843
1.2808199193
1.2800166437
1.2790218698
1.2777063350
1.2759461012
1.2736506278
1.2707845359
1.2673769258
1.2635144081
1.2593231420
1.2549456733
1.2505182316
1.2461561924
1.2419483234
1.2379573371
1.2342260224
1.2307847068
1.2276566787
1.2248624605
1.2224220006
1.2203542421
1.2186765990
1.2174044031
1.2165495235
1.2161199374
1.2172888938
1.1169262806
1.1160485639
1.1160917265
1.1161824191
1.1163288490
1.1165413713
1.1168305903
1.1172054647
1.1176711723
1.1182276626
1.1188690258
1.1195833443
1.1203531357
1.1211559141
1.1219643086
1.1227458377
1.1234633443
1.1240784546
1.1245599808
1.1248936467
1.1250764199
1.1251854167
1.2830021266
1.2843977737
1.2839927193
1.2832532533
1.2822605020
1.2811052155
1.2798818720
1.2786720925
1.2775268093
1.2764494614
1.2753879033
1.2742408449
1.2728777188
1.2711688914
1.2690166274
1.2663780813
1.2632738983
1.2597794807
1.2560056808
1.2520757672
1.2481045159
1.2441862976
1.2403918455
1.2367705892
1.2333573904
1.2301796580
1.2272619913
1.2246293441
1.2223080216
1.2203243240
1.2187031432
1.2174665880
1.2166321290
1.2162117441
1.2175205713
1.1211557866
1.1205038930
1.1205595476
1.1206752849
1.1208593320
1.1211218748
1.1214729947
1.1219206772
1.1224687516
1.1231156934
1.1238544298
1.1246727255
1.1255540074
1.1264779468
1.1274199693
1.1283496032
1.1292288660
1.1300136741
1.1306615985
1.1311430939
1.1314319699
1.1315016967
1.2817497525
1.2831378628
1.2825434468
1.2814649309
1.2800173992
1.2783325733
1.2765530919
1.2748103108
1.2731998721
1.2717599450
1.2704604384
1.2692089643
1.2678728352
1.2663127162
1.2644166714
1.2621251279
1.2594400620
1.2564162713
1.2531423937
1.2497190076
1.2462396858
1.2427809569
1.2394003065
1.2361390886
1.2330289180
1.2300978786
1.2273743040
1.2248889603
1.2226750704
1.2207663430
1.2191949284
1.2179893747
1.2171724391
1.2167598722
1.2181868600
1.1254678627
1.1250411668
1.1251082933
1.1252470325
1.1254656330
1.1257741213
1.1261821023
1.1266967392
1.1273208625
1.1280521549
1.1288835303
1.1298041427
1.1308005933
1.1318573967
1.1329555856
1.1340691550
1.1351606902
1.1361798064
1.1370694309
1.1377786604
1.1382466531
1.1382557338
1.2804605392
1.2817990343
1.2809995928
1.2795676425
1.2776482023
1.2754130459
1.2730565652
1.2707659811
1.2686884034
1.2669027100
1.2654049566
1.2641129075
1.2628896603
1.2615806882
1.2600515292
1.2582159633
1.2560474834
1.2535724573
1.2508528309
1.2479657537
1.2449861628
1.2419774779
1.2389894634
1.2360606809
1.2332238470
1.2305108123
1.2279555618
1.2255956259
1.2234713738
1.2216237335
1.2200917235
1.2189098749
1.2181058355
1.2176988503
1.2192236811
1.1297744914
1.1295664102
1.1296443946
1.1298048839
1.1300561201
1.1304079544
1.1308695695
1.1314475295
1.1321441835
1.1329573894
1.1338816171
1.1349096532
1.1360341595
1.1372478419
1.1385407946
1.1398945022
1.1412739222
1.1426218781
1.1438629255
1.1449190290
1.1456878894
1.1456137959
1.2791093060
1.2803515495
1.2793376321
1.2775633879
1.2751893706
1.2724213088
1.2695061562
1.2666910379
1.2641794046
1.2620950067
1.2604623594
1.2592089519
1.2581901710
1.2572299469
1.2561630012
1.2548677241
1.2532815959
1.2513977833
1.2492502716
1.2468947686
1.2443919838
1.2417978232
1.2391599062
1.2365188226
1.2339120549
1.2313776117
1.2289564430
1.2266933235
1.2246356511
1.2228311339
1.2213250888
1.2201574451
1.2193602553
1.2189559203
1.2205599395
1.1339723071
1.1339702286
1.1340587062
1.1342401706
1.1345227977
1.1349162245
1.1354292738
1.1360682153
1.1368356187
1.1377308122
1.1387519020
1.1398982782
1.1411725272
1.1425801530
1.1441252851
1.1458015931
1.1475797620
1.1493962009
1.1511528016
1.1527382058
1.1540184867
1.1538432549
1.2776065153
1.2787119610
1.2774848864
1.2754233039
1.2726668453
1.2694417620
1.2660446083
1.2627831145
1.2599186177
1.2576207291
1.2559419945
1.2548172964
1.2540901156
1.2535572284
1.2530164999
1.2523056866
1.2513228972
1.2500274479
1.2484274850
1.2465614923
1.2444813649
1.2422410879
1.2398910630
1.2374777909
1.2350462202
1.2326420734
1.2303139213
1.2281137766
1.2260956038
1.2243132054
1.2228174472
1.2216529417
1.2208555638
1.2204504669
1.2221167758
1.1379471749
1.1381327249
1.1382312286
1.1384326442
1.1387449420
1.1391773956
1.1397384043
1.1404341298
1.1412679837
1.1422420695
1.1433604274
1.1446326256
1.1460763338
1.1477169017
1.1495815656
1.1516870897
1.1540216570
1.1565252354
1.1590804420
1.1615389951
1.1637820184
1.1635022938
1.2756398693
1.2765943223
1.2752256744
1.2730472878
1.2700900925
1.2665815143
1.2628642319
1.2593060123
1.2562254109
1.2538364647
1.2522175124
1.2513080889
1.2509370192
1.2508716231
1.2508716669
1.2507345372
1.2503208847
1.2495597668
1.2484383482
1.2469832884
1.2452429983
1.2432742349
1.2411338443
1.2388768202
1.2365571378
1.2342288938
1.2319482759
1.2297740621
1.2277660030
1.2259830855
1.2244808100
1.2233076376
1.2225025937
1.2220931176
1.2238065613
1.1415827906
1.1419324055
1.1420400633
1.1422595107
1.1425981930
1.1430645685
1.1436660820
1.1444082863
1.1452950709
1.1463312724
1.1475274665
1.1489050875
1.1505004806
1.1523658268
1.1545642346
1.1571580500
1.1601913225
1.1636706518
1.1675600926
1.1718416732
1.1768294636
1.1765032898
1.2717896794
1.2726646702
1.2720339328
1.2703736959
1.2676389250
1.2641518044
1.2603517083
1.2566891163
1.2535480683
1.2511885728
1.2497138242
1.2490671676
1.2490634019
1.2494428919
1.2499316807
1.2502925268
1.2503549744
1.2500242464
1.2492724998
1.2481196619
1.2466147420
1.2448202874
1.2428015602
1.2406231486
1.2383484424
1.2360397226
1.2337601993
1.2315745488
1.2295472738
1.2277414640
1.2262162151
1.2250229145
1.2242029964
1.2237856698
1.2255327913
1.1447733930
1.1452592104
1.1453750566
1.1456103740
1.1459716279
1.1464657375
1.1470981479
1.1478723647
1.1487907395
1.1498579670
1.1510870157
1.1525050487
1.1541578970
1.1561108324
1.1584421418
1.1612286116
1.1645236154
1.1683305397
1.1725875052
1.1772215366
1.1825132103
1.1893225041
1.2059882006
1.2258660340
1.2791935544
1.2746203003
1.2726955789
1.2703669639
1.2672235495
1.2634541324
1.2594498703
1.2556542675
1.2524609974
1.2501413074
1.2488025243
1.2483813936
1.2486760729
1.2494028913
1.2502606541
1.2509855513
1.2513839453
1.2513440279
1.2508281347
1.2498529581
1.2484702065
1.2467492573
1.2447640539
1.2425885362
1.2402949194
1.2379528288
1.2356314908
1.2334003645
1.2313275373
1.2294790424
1.2279164815
1.2266932138
1.2258523137
1.2254242200
1.2271932143
1.1474361297
1.1480270607
1.1481510591
1.1484020787
1.1487854266
1.1493062093
1.1499674986
1.1507703038
1.1517149266
1.1528054449
1.1540570730
1.1555034526
1.1572027302
1.1592404255
1.1617253006
1.1647784455
1.1685172799
1.1730366157
1.1784006825
1.1846836294
1.1921466908
1.2010355080
1.2078629293
1.2269241259
1.2630350983
1.2675831864
1.2690528181
1.2684547693
1.2662767342
1.2630562521
1.2593691148
1.2557708348
1.2527261446
1.2505501625
1.2493736827
1.2491413911
1.2496484646
1.2506010191
1.2516842482
1.2526201104
1.2532017833
1.2533075990
1.2528944746
1.2519779852
1.2506130713
1.2488755286
1.2468471017
1.2446100076
1.2422441522
1.2398253654
1.2374277392
1.2351243582
1.2329857525
1.2310797854
1.2294695207
1.2282093786
1.2273433319
1.2269025210
1.2286831970
1.1495142450
1.1501771021
1.1503105427
1.1505798957
1.1509894109
1.1515425115
1.1522400190
1.1530805068
1.1540621287
1.1551879770
1.1564747478
1.1579612292
1.1597157034
1.1618402889
1.1644676214
1.1677502215
1.1718433795
1.1768799167
1.1829436801
1.1900556154
1.1981805032
1.2069423205
1.2143993767
1.2309665618
1.2575111429
1.2648979293
1.2676952943
1.2679455585
1.2663947899
1.2636493509
1.2603194379
1.2569895527
1.2541503479
1.2521382653
1.2510994280
1.2509880772
1.2516042723
1.2526550353
1.2538238293
1.2548290599
1.2554589670
1.2555873479
1.2551683040
1.2542168465
1.2527904054
1.2509698471
1.2488432497
1.2464997082
1.2440255562
1.2415017121
1.2390060872
1.2366143785
1.2343985889
1.2324274597
1.2307646098
1.2294647260
1.2285720190
1.2281178528
1.2299015866
1.1509737956
1.1516743948
1.1518194816
1.1521117016
1.1525544731
1.1531498202
1.1538965660
1.1547909076
1.1558285102
1.1570104533
1.1583528403
1.1598960739
1.1617130568
1.1639142673
1.1666442777
1.1700701029
1.1743615629
1.1796595215
1.1860355849
1.1934464017
1.2016655669
1.2100645637
1.2177388927
1.2323150000
1.2533895117
1.2626574559
1.2668309049
1.2679900477
1.2670921900
1.2648435664
1.2618964909
1.2588560370
1.2562267306
1.2543575127
1.2534067695
1.2533409210
1.2539715566
1.2550151753
1.2561620377
1.2571340871
1.2577196001
1.2577904640
1.2572985644
1.2562576099
1.2547260348
1.2527880907
1.2505366866
1.2480665191
1.2454692932
1.2428301665
1.2402300992
1.2377466586
1.2354526171
1.2334168785
1.2317029105
1.2303650383
1.2294471728
1.2289804995
1.2307601463
1.1518014196
1.1525054562
1.1526645724
1.1529845738
1.1534683018
1.1541166984
1.1549268542
1.1558926043
1.1570066516
1.1582667966
1.1596861234
1.1613027643
1.1631886276
1.1654549804
1.1682488803
1.1717410129
1.1761049539
1.1814825351
1.1879378811
1.1953989637
1.2035620629
1.2117238199
1.2193641072
1.2322287419
1.2499654840
1.2603634830
1.2657882871
1.2678777772
1.2676657458
1.2659398133
1.2633934986
1.2606499652
1.2582239225
1.2564746314
1.2555736035
1.2555031914
1.2560919113
1.2570714276
1.2581435655
1.2590370514
1.2595419193
1.2595284038
1.2589453571
1.2578038706
1.2561618729
1.2541056004
1.2517317241
1.2491397058
1.2464259689
1.2436794333
1.2409836658
1.2384176569
1.2360545215
1.2339628548
1.2322054749
1.2308358944
1.2298973168
1.2294204343
1.2311901776
1.1520033550
1.1526770291
1.1528521065
1.1532039019
1.1537349356
1.1544453996
1.1553309590
1.1563831683
1.1575914155
1.1589491564
1.1604643581
1.1621695694
1.1641310825
1.1664550513
1.1692842711
1.1727863531
1.1771333519
1.1824670254
1.1888519190
1.1962133452
1.2042331732
1.2122022323
1.2197058158
1.2314803357
1.2474521337
1.2583263831
1.2645285987
1.2672893639
1.2676228866
1.2663428129
1.2641548774
1.2616835915
1.2594438784
1.2578001612
1.2569356796
1.2568497051
1.2573895515
1.2583037616
1.2593065029
1.2601330253
1.2605742416
1.2604974289