<VTKFile type="UnstructuredGrid" version="0.1">
	<UnstructuredGrid>
		<Piece NumberOfPoints="13548" NumberOfCells="3387">
			<CellData>
				<DataArray type="Int32" Name="ghost" NumberOfComponents="1" Format="ascii">
1
1
1
1
1
1
1
1
1
1
1
1
1
1
1
1
1
1
1
1
1
1
1
1
1
1
1
1
1
1
1
1
1
1
1
1
1
1
1
1
1
1
1
1
1
1
1
1
1
1
1
1
1
1
1
1
1
1
0
0
0
0
0
0
0
0
0
0
0
0
0
0
0
0
0
0
0
0
1
1
0
0
0
0
0
0
0
0
0
0
0
0
0
0
0
0
0
0
0
0
0
0
0
0
0
0
0
0
0
0
0
0
0
1
1
0
0
0
0
0
0
0
0
0
0
0
0
0
0
0
0
0
0
0
0
1
1
0
0
0
0
0
0
0
0
0
0
0
0
0
0
0
0
0
0
0
0
0
0
0
0
0
0
0
0
0
0
0
0
0
1
1
0
0
0
0
0
0
0
0
0
0
0
0
0
0
0
0
0
0
0
0
1
1
0
0
0
0
0
0
0
0
0
0
0
0
0
0
0
0
0
0
0
0
0
0
0
0
0
0
0
0
0
0
0
0
0
1
1
0
0
0
0
0
0
0
0
0
0
0
0
0
0
0
0
0
0
0
0
1
1
0
0
0
0
0
0
0
0
0
0
0
0
0
0
0
0
0
0
0
0
0
0
0
0
0
0
0
0
0
0
0
0
0
1
1
0
0
0
0
0
0
0
0
0
0
0
0
0
0
0
0
0
0
0
0
1
1
0
0
0
0
0
0
0
0
0
0
0
0
0
0
0
0
0
0
0
0
0
0
0
0
0
0
0
0
0
0
0
0
0
1
1
0
0
0
0
0
0
0
0
0
0
0
0
0
0
0
0
0
0
0
0
1
1
0
0
0
0
0
0
0
0
0
0
0
0
0
0
0
0
0
0
0
0
0
0
0
0
0
0
0
0
0
0
0
0
0
1
1
0
0
0
0
0
0
0
0
0
0
0
0
0
0
0
0
0
0
0
0
1
1
0
0
0
0
0
0
0
0
0
0
0
0
0
0
0
0
0
0
0
0
0
0
0
0
0
0
0
0
0
0
0
0
0
1
1
0
0
0
0
0
0
0
0
0
0
0
0
0
0
0
0
0
0
0
0
1
1
0
0
0
0
0
0
0
0
0
0
0
0
0
0
0
0
0
0
0
0
0
0
0
0
0
0
0
0
0
0
0
0
0
1
1
0
0
0
0
0
0
0
0
0
0
0
0
0
0
0
0
0
0
0
0
1
1
0
0
0
0
0
0
0
0
0
0
0
0
0
0
0
0
0
0
0
0
0
0
0
0
0
0
0
0
0
0
0
0
0
1
1
0
0
0
0
0
0
0
0
0
0
0
0
0
0
0
0
0
0
0
0
1
1
0
0
0
0
0
0
0
0
0
0
0
0
0
0
0
0
0
0
0
0
0
0
0
0
0
0
0
0
0
0
0
0
0
1
1
0
0
0
0
0
0
0
0
0
0
0
0
0
0
0
0
0
0
0
0
1
1
0
0
0
0
0
0
0
0
0
0
0
0
0
0
0
0
0
0
0
0
0
0
0
0
0
0
0
0
0
0
0
0
0
1
1
0
0
0
0
0
0
0
0
0
0
0
0
0
0
0
0
0
0
0
0
1
1
0
0
0
0
0
0
0
0
0
0
0
0
0
0
0
0
0
0
0
0
0
0
0
0
0
0
0
0
0
0
0
0
0
1
1
0
0
0
0
0
0
0
0
0
0
0
0
0
0
0
0
0
0
0
0
1
1
0
0
0
0
0
0
0
0
0
0
0
0
0
0
0
0
0
0
0
0
0
0
0
0
0
0
0
0
0
0
0
0
0
1
1
0
0
0
0
0
0
0
0
0
0
0
0
0
0
0
0
0
0
0
0
1
1
0
0
0
0
0
0
0
0
0
0
0
0
0
0
0
0
0
0
0
0
0
0
0
0
0
0
0
0
0
0
0
0
0
1
1
0
0
0
0
0
0
0
0
0
0
0
0
0
0
0
0
0
0
0
0
1
1
0
0
0
0
0
0
0
0
0
0
0
0
0
0
0
0
0
0
0
0
0
0
0
0
0
0
0
0
0
0
0
0
0
1
1
0
0
0
0
0
0
0
0
0
0
0
0
0
0
0
0
0
0
0
0
1
1
0
0
0
0
0
0
0
0
0
0
0
0
0
0
0
0
0
0
0
0
0
0
0
0
0
0
0
0
0
0
0
0
0
1
1
0
0
0
0
0
0
0
0
0
0
0
0
0
0
0
0
0
0
0
0
1
1
0
0
0
0
0
0
0
0
0
0
0
0
0
0
0
0
0
0
0
0
0
0
0
0
0
0
0
0
0
0
0
0
0
1
1
0
0
0
0
0
0
0
0
0
0
0
0
0
0
0
0
0
0
0
0
1
1
0
0
0
0
0
0
0
0
0
0
0
0
0
0
0
0
0
0
0
0
0
0
0
0
0
0
0
0
0
0
0
0
0
1
1
0
0
0
0
0
0
0
0
0
0
0
0
0
0
0
0
0
0
0
0
1
1
0
0
0
0
0
0
0
0
0
0
0
0
0
0
0
0
0
0
0
0
0
0
0
0
0
0
0
0
0
0
0
0
0
1
1
0
0
0
0
0
0
0
0
0
0
0
0
0
0
0
0
0
0
0
0
1
1
0
0
0
0
0
0
0
0
0
0
0
0
0
0
0
0
0
0
0
0
0
0
0
0
0
0
0
0
0
0
0
0
0
1
1
0
0
0
0
0
0
0
0
0
0
0
0
0
0
0
0
0
0
0
0
1
1
0
0
0
0
0
0
0
0
0
0
0
0
0
0
0
0
0
0
0
0
0
0
0
0
0
0
0
0
0
0
0
0
0
1
1
0
0
0
0
0
0
0
0
0
0
0
0
0
0
0
0
0
0
0
0
1
1
0
0
0
0
0
0
0
0
0
0
0
0
0
0
0
0
0
0
0
0
0
0
0
0
0
0
0
0
0
0
0
0
0
1
1
0
0
0
0
0
0
0
0
0
0
0
0
0
0
0
0
0
0
0
0
1
1
0
0
0
0
0
0
0
0
0
0
0
0
0
0
0
0
0
0
0
0
0
0
0
0
0
0
0
0
0
0
0
0
0
1
1
0
0
0
0
0
0
0
0
0
0
0
0
0
0
0
0
0
0
0
0
1
1
0
0
0
0
0
0
0
0
0
0
0
0
0
0
0
0
0
0
0
0
0
0
0
0
0
0
0
0
0
0
0
0
0
1
1
0
0
0
0
0
0
0
0
0
0
0
0
0
0
0
0
0
0
0
0
0
1
1
0
0
0
0
0
0
0
0
0
0
0
0
0
0
0
0
0
0
0
0
0
0
0
0
0
0
0
0
0
0
0
0
0
0
1
1
0
0
0
0
0
0
0
0
0
0
0
0
0
0
0
0
0
0
0
0
0
0
0
0
0
0
0
0
0
0
0
0
0
0
0
0
0
0
0
0
0
0
0
0
0
0
0
0
0
0
0
0
0
0
0
0
0
1
1
0
0
0
0
0
0
0
0
0
0
0
0
0
0
0
0
0
0
0
0
0
0
0
0
0
0
0
0
0
0
0
0
0
0
0
0
0
0
0
0
0
0
0
0
0
0
0
0
0
0
0
0
0
0
0
0
0
1
1
0
0
0
0
0
0
0
0
0
0
0
0
0
0
0
0
0
0
0
0
0
0
0
0
0
0
0
0
0
0
0
0
0
0
0
0
0
0
0
0
0
0
0
0
0
0
0
0
0
0
0
0
0
0
0
0
0
1
1
0
0
0
0
0
0
0
0
0
0
0
0
0
0
0
0
0
0
0
0
0
0
0
0
0
0
0
0
0
0
0
0
0
0
0
0
0
0
0
0
0
0
0
0
0
0
0
0
0
0
0
0
0
0
0
0
0
1
1
0
0
0
0
0
0
0
0
0
0
0
0
0
0
0
0
0
0
0
0
0
0
0
0
0
0
0
0
0
0
0
0
0
0
0
0
0
0
0
0
0
0
0
0
0
0
0
0
0
0
0
0
0
0
0
0
0
1
1
0
0
0
0
0
0
0
0
0
0
0
0
0
0
0
0
0
0
0
0
0
0
0
0
0
0
0
0
0
0
0
0
0
0
0
0
0
0
0
0
0
0
0
0
0
0
0
0
0
0
0
0
0
0
0
0
0
1
1
0
0
0
0
0
0
0
0
0
0
0
0
0
0
0
0
0
0
0
0
0
0
0
0
0
0
0
0
0
0
0
0
0
0
0
0
0
0
0
0
0
0
0
0
0
0
0
0
0
0
0
0
0
0
0
0
0
1
1
0
0
0
0
0
0
0
0
0
0
0
0
0
0
0
0
0
0
0
0
0
0
0
0
0
0
0
0
0
0
0
0
0
0
0
0
0
0
0
0
0
0
0
0
0
0
0
0
0
0
0
0
0
0
0
0
0
1
1
0
0
0
0
0
0
0
0
0
0
0
0
0
0
0
0
0
0
0
0
0
0
0
0
0
0
0
0
0
0
0
0
0
0
0
0
0
0
0
0
0
0
0
0
0
0
0
0
0
0
0
0
0
0
0
0
0
1
1
0
0
0
0
0
0
0
0
0
0
0
0
0
0
0
0
0
0
0
0
0
0
0
0
0
0
0
0
0
0
0
0
0
0
0
0
0
0
0
0
0
0
0
0
0
0
0
0
0
0
0
0
0
0
0
0
0
1
1
0
0
0
0
0
0
0
0
0
0
0
0
0
0
0
0
0
0
0
0
0
1
1
0
0
0
0
0
0
0
0
0
0
0
0
0
0
0
0
0
0
0
0
0
0
0
0
0
0
0
0
0
0
0
0
0
0
1
1
0
0
0
0
0
0
0
0
0
0
0
0
0
0
0
0
0
0
0
0
1
1
0
0
0
0
0
0
0
0
0
0
0
0
0
0
0
0
0
0
0
0
0
0
0
0
0
0
0
0
0
0
0
0
0
1
1
0
0
0
0
0
0
0
0
0
0
0
0
0
0
0
0
0
0
0
0
1
1
0
0
0
0
0
0
0
0
0
0
0
0
0
0
0
0
0
0
0
0
0
0
0
0
0
0
0
0
0
0
0
0
0
1
1
0
0
0
0
0
0
0
0
0
0
0
0
0
0
0
0
0
0
0
0
1
1
0
0
0
0
0
0
0
0
0
0
0
0
0
0
0
0
0
0
0
0
0
0
0
0
0
0
0
0
0
0
0
0
0
1
1
0
0
0
0
0
0
0
0
0
0
0
0
0
0
0
0
0
0
0
0
1
1
0
0
0
0
0
0
0
0
0
0
0
0
0
0
0
0
0
0
0
0
0
0
0
0
0
0
0
0
0
0
0
0
0
1
1
0
0
0
0
0
0
0
0
0
0
0
0
0
0
0
0
0
0
0
0
1
1
0
0
0
0
0
0
0
0
0
0
0
0
0
0
0
0
0
0
0
0
0
0
0
0
0
0
0
0
0
0
0
0
0
1
1
0
0
0
0
0
0
0
0
0
0
0
0
0
0
0
0
0
0
0
0
1
1
0
0
0
0
0
0
0
0
0
0
0
0
0
0
0
0
0
0
0
0
0
0
0
0
0
0
0
0
0
0
0
0
0
1
1
0
0
0
0
0
0
0
0
0
0
0
0
0
0
0
0
0
0
0
0
1
1
0
0
0
0
0
0
0
0
0
0
0
0
0
0
0
0
0
0
0
0
0
0
0
0
0
0
0
0
0
0
0
0
0
1
1
0
0
0
0
0
0
0
0
0
0
0
0
0
0
0
0
0
0
0
0
1
1
0
0
0
0
0
0
0
0
0
0
0
0
0
0
0
0
0
0
0
0
0
0
0
0
0
0
0
0
0
0
0
0
0
1
1
0
0
0
0
0
0
0
0
0
0
0
0
0
0
0
0
0
0
0
0
1
1
0
0
0
0
0
0
0
0
0
0
0
0
0
0
0
0
0
0
0
0
0
0
0
0
0
0
0
0
0
0
0
0
0
1
1
0
0
0
0
0
0
0
0
0
0
0
0
0
0
0
0
0
0
0
0
1
1
0
0
0
0
0
0
0
0
0
0
0
0
0
0
0
0
0
0
0
0
0
0
0
0
0
0
0
0
0
0
0
0
0
1
1
0
0
0
0
0
0
0
0
0
0
0
0
0
0
0
0
0
0
0
0
1
1
0
0
0
0
0
0
0
0
0
0
0
0
0
0
0
0
0
0
0
0
0
0
0
0
0
0
0
0
0
0
0
0
0
1
1
0
0
0
0
0
0
0
0
0
0
0
0
0
0
0
0
0
0
0
0
1
1
0
0
0
0
0
0
0
0
0
0
0
0
0
0
0
0
0
0
0
0
0
0
0
0
0
0
0
0
0
0
0
0
0
1
1
0
0
0
0
0
0
0
0
0
0
0
0
0
0
0
0
0
0
0
0
1
1
0
0
0
0
0
0
0
0
0
0
0
0
0
0
0
0
0
0
0
0
0
0
0
0
0
0
0
0
0
0
0
0
0
1
1
0
0
0
0
0
0
0
0
0
0
0
0
0
0
0
0
0
0
0
0
1
1
0
0
0
0
0
0
0
0
0
0
0
0
0
0
0
0
0
0
0
0
0
0
0
0
0
0
0
0
0
0
0
0
0
1
1
0
0
0
0
0
0
0
0
0
0
0
0
0
0
0
0
0
0
0
0
1
1
0
0
0
0
0
0
0
0
0
0
0
0
0
0
0
0
0
0
0
0
0
0
0
0
0
0
0
0
0
0
0
0
0
1
1
0
0
0
0
0
0
0
0
0
0
0
0
0
0
0
0
0
0
0
0
1
1
0
0
0
0
0
0
0
0
0
0
0
0
0
0
0
0
0
0
0
0
0
0
0
0
0
0
0
0
0
0
0
0
0
1
1
0
0
0
0
0
0
0
0
0
0
0
0
0
0
0
0
0
0
0
0
1
1
0
0
0
0
0
0
0
0
0
0
0
0
0
0
0
0
0
0
0
0
0
0
0
0
0
0
0
0
0
0
0
0
0
1
1
0
0
0
0
0
0
0
0
0
0
0
0
0
0
0
0
0
0
0
0
1
1
0
0
0
0
0
0
0
0
0
0
0
0
0
0
0
0
0
0
0
0
0
0
0
0
0
0
0
0
0
0
0
0
0
1
1
0
0
0
0
0
0
0
0
0
0
0
0
0
0
0
0
0
0
0
0
1
1
0
0
0
0
0
0
0
0
0
0
0
0
0
0
0
0
0
0
0
0
0
0
0
0
0
0
0
0
0
0
0
0
0
1
1
0
0
0
0
0
0
0
0
0
0
0
0
0
0
0
0
0
0
0
0
1
1
0
0
0
0
0
0
0
0
0
0
0
0
0
0
0
0
0
0
0
0
0
0
0
0
0
0
0
0
0
0
0
0
0
1
1
0
0
0
0
0
0
0
0
0
0
0
0
0
0
0
0
0
0
0
0
1
1
0
0
0
0
0
0
0
0
0
0
0
0
0
0
0
0
0
0
0
0
0
0
0
0
0
0
0
0
0
0
0
0
0
1
1
1
1
1
1
1
1
1
1
1
1
1
1
1
1
1
1
1
1
1
1
1
1
1
1
1
1
1
1
1
1
1
1
1
1
1
1
1
1
1
1
1
1
1
1
1
1
1
1
1
1
1
1
1
1
1
1
				</DataArray>
				<DataArray type="Float64" Name="h" NumberOfComponents="1" Format="ascii">
1.0345711023
1.0352309448
1.0357419403
1.0367491329
1.0382234827
1.0401228779
1.0423935878
1.0449723086
1.0477885433
1.0507667851
1.0538290649
1.0568973946
1.0598956208
1.0627514827
1.0653983900
1.0677766050
1.0698345468
1.0715296835
1.0728287209
1.0737075400
1.0741507042
1.0741507042
1.3181800884
1.3188550308
1.3184859653
1.3177685978
1.3167417951
1.3154602603
1.3139896063
1.3123995644
1.3107583491
1.3091268619
1.3075542358
1.3060761626
1.3047150314
1.3034821378
1.3023809331
1.3014109283
1.3005720682
1.2998676696
1.2993069342
1.2989069559
1.2986921728
1.2986930512
1.2989437259
1.2994766530
1.3003162638
1.3014715679
1.3029271500
1.3046355016
1.3065123607
1.3084369726
1.3102599150
1.3118187306
1.3129600541
1.3135638264
1.3135638264
1.0352309448
1.0360548323
1.0365629570
1.0375641016
1.0390286589
1.0409138381
1.0431652713
1.0457191991
1.0485049995
1.0514474472
1.0544692765
1.0574935977
1.0604456671
1.0632548422
1.0658562434
1.0681918247
1.0702115975
1.0718744354
1.0731482045
1.0740096833
1.0744440313
1.0741507042
1.3188550308
1.3193891862
1.3189863594
1.3182018389
1.3170754730
1.3156638865
1.3140359399
1.3122661815
1.3104291840
1.3085934932
1.3068166548
1.3051429012
1.3036026951
1.3022144237
1.3009873408
1.2999253848
1.2990316065
1.2983113067
1.2977747935
1.2974395859
1.2973300004
1.2974758023
1.2979096184
1.2986612174
1.2997506267
1.3011802023
1.3029253382
1.3049268745
1.3070871231
1.3092714002
1.3113173331
1.3130518505
1.3143140308
1.3149792497
1.3135638264
1.0359389716
1.0367730650
1.0372764032
1.0382680210
1.0397184189
1.0415850046
1.0438137308
1.0463413055
1.0490977293
1.0520085451
1.0549973681
1.0579882521
1.0609074052
1.0636850898
1.0662572401
1.0685665103
1.0705634933
1.0722075330
1.0734668698
1.0743185668
1.0747479757
1.0744478026
1.3184774378
1.3189836553
1.3185900620
1.3178232304
1.3167215411
1.3153396464
1.3137441743
1.3120074554
1.3102021245
1.3083952639
1.3066435283
1.3049908336
1.3034678074
1.3020933331
1.3008773305
1.2998244199
1.2989382309
1.2982244637
1.2976936064
1.2973631364
1.2972571306
1.2974049634
1.2978387906
1.2985879130
1.2996719918
1.3010932242
1.3028271405
1.3048150712
1.3069601796
1.3091289285
1.3111602617
1.3128824296
1.3141356642
1.3147961873
1.3133713230
1.0373431767
1.0381960911
1.0386899188
1.0396626281
1.0410849728
1.0429148047
1.0450987662
1.0475745402
1.0502733940
1.0531224048
1.0560469208
1.0589728285
1.0618281662
1.0645449219
1.0670605699
1.0693190837
1.0712721478
1.0728799883
1.0741115498
1.0749444306
1.0753643418
1.0750503762
1.3177254814
1.3181751554
1.3177994149
1.3170668035
1.3160128979
1.3146885747
1.3131561804
1.3114837788
1.3097402595
1.3079898586
1.3062874774
1.3046763833
1.3031874889
1.3018406115
1.3006469441
1.2996124197
1.2987417862
1.2980415147
1.2975224352
1.2972019312
1.2971035928
1.2972560052
1.2976903740
1.2984350531
1.2995089558
1.3009139442
1.3026258017
1.3045868218
1.3067018606
1.3088396737
1.3108418508
1.3125393107
1.3137746231
1.3144257308
1.3129812485
1.0394194558
1.0402967005
1.0407764414
1.0417211947
1.0431021835
1.0448780372
1.0469965463
1.0493969449
1.0520124463
1.0547724150
1.0576047210
1.0604378646
1.0632024492
1.0658328467
1.0682686333
1.0704555666
1.0723468001
1.0739037461
1.0750962984
1.0759027759
1.0763093689
1.0759746136
1.3166059460
1.3169695005
1.3166190230
1.3159348832
1.3149487701
1.3137063101
1.3122638729
1.3106835339
1.3090288887
1.3073601068
1.3057295357
1.3041794400
1.3027410570
1.3014354678
1.3002756336
1.2992693333
1.2984228951
1.2977438777
1.2972435781
1.2969392090
1.2968536096
1.2970141618
1.2974506233
1.2981898976
1.2992497377
1.3006314571
1.3023111702
1.3042325716
1.3063030294
1.3083947378
1.3103532878
1.3120136618
1.3132220139
1.3138589387
1.3123831995
1.0421315082
1.0430342354
1.0434955880
1.0444039397
1.0457312919
1.0474375006
1.0494720725
1.0517764499
1.0542864993
1.0569345885
1.0596517935
1.0623698449
1.0650224412
1.0675467698
1.0698848466
1.0719844735
1.0738004748
1.0752956138
1.0764408688
1.0772153793
1.0776058663
1.0772435641
1.3151274523
1.3153746253
1.3150551211
1.3144304935
1.3135278073
1.3123864157
1.3110555061
1.3095899009
1.3080467181
1.3064810776
1.3049420743
1.3034705990
1.3020981539
1.3008472699
1.2997330202
1.2987654246
1.2979527442
1.2973038604
1.2968306057
1.2965499074
1.2964835598
1.2966573013
1.2970989130
1.2978333062
1.2988766132
1.3002293298
1.3018679208
1.3037378690
1.3057498418
1.3077806180
1.3096811838
1.3112920550
1.3124643082
1.3130822069
1.3115614373
1.0454305620
1.0463546603
1.0467937788
1.0476582526
1.0489212713
1.0505444863
1.0524797956
1.0546715723
1.0570590417
1.0595782133
1.0621638990
1.0647514613
1.0672779679
1.0696835847
1.0719128470
1.0739156311
1.0756484455
1.0770754184
1.0781686317
1.0789080482
1.0792808881
1.0788851604
1.3132994564
1.3134003409
1.3131154464
1.3125574464
1.3117484522
1.3107210531
1.3095166281
1.3081820323
1.3067671726
1.3053214435
1.3038901375
1.3025124078
1.3012198642
1.3000365166
1.2989797167
1.2980619556
1.2972936409
1.2966851066
1.2962487134
1.2960009323
1.2959621767
1.2961560600
1.2966078140
1.2973397627
1.2983658926
1.2996855384
1.3012754592
1.3030832457
1.3050236102
1.3069790618
1.3088074257
1.3103563172
1.3114831959
1.3120771231
1.3104948335
1.0492555109
1.0501911435
1.0506048703
1.0514194175
1.0526096624
1.0541397167
1.0559646196
1.0580324173
1.0602863485
1.0626665707
1.0651119574
1.0675616478
1.0699560682
1.0722382418
1.0743550419
1.0762582285
1.0779058299
1.0792632198
1.0803034949
1.0810073470
1.0813623650
1.0809292483
1.3111322251
1.3110590298
1.3108100564
1.3103213845
1.3096102735
1.3087026201
1.3076319917
1.3064371631
1.3051606082
1.3038456895
1.3025335546
1.3012613087
1.3000604433
1.2989563296
1.2979685844
1.2971122181
1.2963998407
1.2958432402
1.2954551993
1.2952514884
1.2952507432
1.2954739153
1.2959430557
1.2966772370
1.2976876946
1.2989721693
1.3005075645
1.3022438182
1.3041003814
1.3059666359
1.3077087486
1.3091831133
1.3102551778
1.3108200655
1.3091566058
1.0535343066
1.0544660458
1.0548521753
1.0556126848
1.0567246893
1.0581554714
1.0598639706
1.0618025998
1.0639191446
1.0661582264
1.0684628583
1.0707758201
1.0730405996
1.0752026877
1.0772108859
1.0790184661
1.0805846810
1.0818759353
1.0828661737
1.0835366326
1.0838750259
1.0834038005
1.3086352465
1.3083645271
1.3081503902
1.3077291808
1.3071138165
1.3063241102
1.3053864182
1.3043319253
1.3031959844
1.3020160354
1.3008290050
1.2996697534
1.2985694100
1.2975544773
1.2966466558
1.2958633408
1.2952192270
1.2947274097
1.2944008682
1.2942543342
1.2943041928
1.2945681285
1.2950643097
1.2958078156
1.2968064360
1.2980557836
1.2995326543
1.3011894805
1.3029510852
1.3047148587
1.3063568705
1.3077440951
1.3087517319
1.3092823798
1.3075147415
1.0581854910
1.0590930491
1.0594505914
1.0601553851
1.0611873253
1.0625175420
1.0641095536
1.0659206966
1.0679036417
1.0700075440
1.0721793604
1.0743650954
1.0765107431
1.0785636547
1.0804739853
1.0821960377
1.0836899292
1.0849228451
1.0858693730
1.0865110329
1.0868352812
1.0863299207
1.3058172213
1.3053322871
1.3051495804
1.3047895254
1.3042615644
1.3035805033
1.3027666267
1.3018445787
1.3008434304
1.2997952496
1.2987329870
1.2976892427
1.2966945875
1.2957763619
1.2949580307
1.2942590627
1.2936959372
1.2932827440
1.2930322936
1.2929578299
1.2930729249
1.2933913164
1.2939265166
1.2946887938
1.2956817095
1.2968981163
1.2983143460
1.2998853766
1.3015419682
1.3031906373
1.3047189672
1.3060064276
1.3069398876
1.3074309826
1.3055329677
1.0631208845
1.0639803917
1.0643097868
1.0649600069
1.0659141878
1.0671478517
1.0686295942
1.0703220023
1.0721827053
1.0741651805
1.0762198550
1.0782952972
1.0803392540
1.0823001941
1.0841289800
1.0857804459
1.0872152325
1.0884010845
1.0893130303
1.0899325400
1.0902462539
1.0897167044
1.3026877824
1.3019808663
1.3018240222
1.3015146646
1.3010599158
1.3004710278
1.2997637973
1.2989578669
1.2980773558
1.2971499608
1.2962052678
1.2952738505
1.2943856420
1.2935685236
1.2928473024
1.2922430443
1.2917735237
1.2914533260
1.2912945679
1.2913084279
1.2915050081
1.2918933476
1.2924814701
1.2932739552
1.2942692879
1.2954568463
1.2968120496
1.2982923813
1.2998350287
1.3013567174
1.3027581784
1.3039333736
1.3047828816
1.3052290596
1.3031719287
1.0682496385
1.0690353661
1.0693385965
1.0699383876
1.0708214155
1.0719679125
1.0733517708
1.0749408470
1.0766974887
1.0785789906
1.0805385295
1.0825263936
1.0844912240
1.0863818342
1.0881491846
1.0897482230
1.0911398730
1.0922923071
1.0931808277
1.0937864485
1.0940941964
1.0935570529
1.2992575004
1.2983312915
1.2981928366
1.2979200599
1.2975191394
1.2969994974
1.2963743622
1.2956603099
1.2948782711
1.2940530043
1.2932117298
1.2923835242
1.2915977778
1.2908826603
1.2902638254
1.2897633006
1.2893994644
1.2891866927
1.2891357017
1.2892548903
1.2895501422
1.2900249954
1.2906811263
1.2915165329
1.2925237530
1.2936879372
1.2949830850
1.2963690717
1.2977899249
1.2991736038
1.3004355988
1.3014863815
1.3022423379
1.3026382999
1.3003920797
1.0734817789
1.0741680743
1.0744486412
1.0750050645
1.0758276331
1.0769013009
1.0782051237
1.0797118860
1.0813880824
1.0831940490
1.0850848039
1.0870114206
1.0889225808
1.0907667579
1.0924945458
1.0940607594
1.0954265301
1.0965604543
1.0974379952
1.0980392093
1.0983463937
1.0978246561
1.2955399581
1.2944082739
1.2942791026
1.2940256812
1.2936547837
1.2931759058
1.2926018570
1.2919483879
1.2912353697
1.2904864527
1.2897278751
1.2889880624
1.2882961613
1.2876804464
1.2871668585
1.2867775838
1.2865306880
1.2864393982
1.2865121231
1.2867536257
1.2871647501
1.2877427209
1.2884820420
1.2893732915
1.2904022453
1.2915491049
1.2927859412
1.2940748694
1.2953670968
1.2966027490
1.2977135951
1.2986285567
1.2992818742
1.2996225827
1.2971581701
1.0787321675
1.0792953483
1.0795580912
1.0800807400
1.0808570008
1.0818762081
1.0831220616
1.0845715606
1.0861944645
1.0879531602
1.0898034978
1.0916964212
1.0935799221
1.0954016478
1.0971115965
1.0986644358
1.1000216243
1.1011523141
1.1020320603
1.1026393400
1.1029521817
1.1024739383
1.2915558640
1.2902432927
1.2901128899
1.2898589764
1.2894905963
1.2890193225
1.2884598445
1.2878295595
1.2871497167
1.2864450459
1.2857425538
1.2850711748
1.2844603174
1.2839382469
1.2835305539
1.2832585846
1.2831389138
1.2831824110
1.2833940476
1.2837739542
1.2843170699
1.2850135405
1.2858499847
1.2868088747
1.2878685656
1.2890037167
1.2901840397
1.2913737489
1.2925315054
1.2936104000
1.2945598155
1.2953288508
1.2958714455
1.2961524085
1.2934444742
1.0839243378
1.0843443101
1.0845950842
1.0850954329
1.0858420102
1.0868278394
1.0880403714
1.0894597715
1.0910579320
1.0927981697
1.0946361624
1.0965219384
1.0984022963
1.1002238512
1.1019360619
1.1034936808
1.1048587958
1.1060013549
1.1068969592
1.1075217418
1.1078474033
1.1074435206
1.2873346798
1.2858751892
1.2857318471
1.2854555071
1.2850592683
1.2845588146
1.2839730881
1.2833237748
1.2826361938
1.2819386551
1.2812610139
1.2806341534
1.2800884250
1.2796520035
1.2793493723
1.2791997956
1.2792168696
1.2794075899
1.2797721213
1.2803048337
1.2809938933
1.2818217206
1.2827665470
1.2838023178
1.2848995883
1.2860271271
1.2871520323
1.2882405522
1.2892590246
1.2901741237
1.2909538832
1.2915689293
1.2919943562
1.2922119936
1.2892426204
1.0889922887
1.0892537143
1.0894989705
1.0899895514
1.0907243477
1.0916990753
1.0929037355
1.0943203549
1.0959216721
1.0976707865
1.0995223080
1.1014247850
1.1033236142
1.1051644860
1.1068966557
1.1084754034
1.1098638747
1.1110331102
1.1119587135
1.1126135781
1.1129604334
1.1126616912
1.2829185558
1.2813532156
1.2811842139
1.2808619850
1.2804055491
1.2798366725
1.2791809239
1.2784670371
1.2777273015
1.2769963730
1.2763093160
1.2757006312
1.2752024139
1.2748426443
1.2746437659
1.2746214224
1.2747843897
1.2751339381
1.2756638104
1.2763613771
1.2772072101
1.2781755548
1.2792360607
1.2803541068
1.2814924718
1.2826140493
1.2836833473
1.2846687243
1.2855443799
1.2862909547
1.2868957482
1.2873517033
1.2876559260
1.2878080090
1.2845707216
1.0938816785
1.0939746073
1.0942209336
1.0947144540
1.0954554076
1.0964409927
1.0976623586
1.0991019481
1.1007320204
1.1025143923
1.1044019032
1.1063413345
1.1082767795
1.1101533959
1.1119207895
1.1135353371
1.1149617110
1.1161723351
1.1171427688
1.1178417187
1.1182197331
1.1180540177
1.2783677067
1.2767416566
1.2765333876
1.2761408933
1.2755909775
1.2749132503
1.2741421861
1.2733163834
1.2724781632
1.2716715103
1.2709392857
1.2703214474
1.2698526993
1.2695606500
1.2694645533
1.2695745720
1.2698924547
1.2704115628
1.2711173765
1.2719889519
1.2729985417
1.2741120245
1.2752906580
1.2764916820
1.2776706168
1.2787849521
1.2797969854
1.2806774541
1.2814085690
1.2819850282
1.2824134672
1.2827091999
1.2828914106
1.2829775204
1.2794809960
1.0985498298
1.0984697952
1.0987234869
1.0992320175
1.0999959990
1.1010128072
1.1022732697
1.1037587967
1.1054399238
1.1072762914
1.1092185100
1.1112115810
1.1131986506
1.1151249307
1.1169410356
1.1186050190
1.1200834917
1.1213504869
1.1223815016
1.1231402245
1.1235614045
1.1235515231
1.2737612492
1.2721201511
1.2718582508
1.2713711344
1.2706950176
1.2698686476
1.2689374409
1.2679526474
1.2669697693
1.2660452448
1.2652324654
1.2645787803
1.2641223667
1.2638901702
1.2638968802
1.2641450184
1.2646267799
1.2653251655
1.2662153939
1.2672668780
1.2684429756
1.2697013119
1.2709953645
1.2722751671
1.2734900342
1.2745930189
1.2755449789
1.2763195082
1.2769069297
1.2773157432
1.2775713482
1.2777106190
1.2777739534
1.2777958728
1.2740664684
1.1029636322
1.1027113253
1.1029780359
1.1035123664
1.1043143409
1.1053802467
1.1066991990
1.1082502592
1.1100011845
1.1119087781
1.1139212102
1.1159819086
1.1180335823
1.1200221442
1.1218998380
1.1236268586
1.1251720103
1.1265110478
1.1276194651
1.1284554818
1.1289343836
1.1290968674
1.2691982489
1.2675844783
1.2672538903
1.2666491855
1.2658168366
1.2648051261
1.2636720032
1.2624840047
1.2613129444
1.2602308653
1.2593044568
1.2585903866
1.2581311037
1.2579524713
1.2580630593
1.2584553900
1.2591093969
1.2599951484
1.2610755803
1.2623092193
1.2636501621
1.2650482166
1.2664501041
1.2678000594
1.2690427418
1.2701281938
1.2710169609
1.2716861447
1.2721341944
1.2723827613
1.2724747403
1.2724668384
1.2724188260
1.2723807720
1.2684628716
1.1070974444
1.1066781024
1.1069625916
1.1075317831
1.1083842695
1.1095141544
1.1109076689
1.1125404680
1.1143767505
1.1163700853
1.1184662060
1.1206073047
1.1227361867
1.1248000276
1.1267531424
1.1285580897
1.1301858616
1.1316138576
1.1328177276
1.1337504600
1.1343048079
1.1346497748
1.2647956969
1.2632445473
1.2628293823
1.2620875251
1.2610745300
1.2598470757
1.2584765531
1.2570471318
1.2556499058
1.2543755461
1.2533066794
1.2525110830
1.2520361447
1.2519061139
1.2521218221
1.2526634336
1.2534959764
1.2545741464
1.2558467648
1.2572604609
1.2587599773
1.2602880547
1.2617860207
1.2631940851
1.2644541714
1.2655150682
1.2663383770
1.2669054379
1.2672226886
1.2673238592
1.2672673891
1.2671272277
1.2669797830
1.2668883762
1.2628418018
1.1109303332
1.1103529625
1.1106589287
1.1112700285
1.1121827894
1.1133883254
1.1148691559
1.1165968348
1.1185315662
1.1206235676
1.1228163223
1.1250511817
1.1272715094
1.1294261159
1.1314715464
1.1333725931
1.1351020354
1.1366384842
1.1379578655
1.1390090691
1.1396607547
1.1401926859
1.2606768186
1.2592131888
1.2586961856
1.2578041571
1.2565958702
1.2551328767
1.2535000597
1.2518011650
1.2501492051
1.2486561519
1.2474228489
1.2465296421
1.2460292855
1.2459437926
1.2462647308
1.2469578250
1.2479709622
1.2492415057
1.2507028150
1.2522890373
1.2539358265
1.2555798932
1.2571587659
1.2586106003
1.2598766736
1.2609064067
1.2616638847
1.2621353574
1.2623348873
1.2623067957
1.2621225258
1.2618699870
1.2616388061
1.2615027106
1.2573971894
1.1144429406
1.1137195408
1.1140494777
1.1147072717
1.1156870327
1.1169764626
1.1185539805
1.1203867967
1.1224310917
1.1246339362
1.1269369576
1.1292811435
1.1316108362
1.1338767018
1.1360374050
1.1380594280
1.1399163368
1.1415867467
1.1430463486
1.1442416728
1.1450183601
1.1457377689
1.2569537206
1.2555898372
1.2549510593
1.2539074051
1.2525046455
1.2508024317
1.2488983814
1.2469173321
1.2449963400
1.2432707187
1.2418611314
1.2408613577
1.2403295652
1.2402848414
1.2407082616
1.2415496577
1.2427383768
1.2441933980
1.2458321086
1.2475762486
1.2493530990
1.2510946309
1.2527362611
1.2542160526
1.2554766524
1.2564698837
1.2571635845
1.2575493682
1.2576482683
1.2575133420
1.2572260729
1.2568846178
1.2565880212
1.2564172874
1.2523247853
1.1176166016
1.1167614772
1.1171164979
1.1178231768
1.1188731722
1.1202507792
1.1219304209
1.1238752289
1.1260378067
1.1283626964
1.1307904172
1.1332623697
1.1357245552
1.1381299216
1.1404392033
1.1426197633
1.1446440803
1.1464877908
1.1481232752
1.1494949056
1.1504298534
1.1513368125
1.2536986911
1.2524337055
1.2516483535
1.2504721075
1.2488994532
1.2469777740
1.2448163529
1.2425623048
1.2403781505
1.2384236293
1.2368398055
1.2357338971
1.2351690495
1.2351607575
1.2356789569
1.2366571843
1.2380061637
1.2396267974
1.2414211793
1.2432995917
1.2451821780
1.2469976510
1.2486809400
1.2501717457
1.2514157761
1.2523686651
1.2530029059
1.2533155750
1.2533337015
1.2531169487
1.2527536685
1.2523484296
1.2520058452
1.2518110689
1.2477975832
1.1204342904
1.1194634558
1.1198430957
1.1205978506
1.1217171878
1.1231823996
1.1249644762
1.1270232222
1.1293086037
1.1317637689
1.1343294773
1.1369490816
1.1395719179
1.1421548767
1.1446620005
1.1470615647
1.1493224545
1.1514104854
1.1532823585
1.1548660001
1.1559670149
1.1570710104
1.2508964227
1.2497199223
1.2487565084
1.2475059827
1.2458263625
1.2437399828
1.2413675253
1.2388795880
1.2364648981
1.2343076522
1.2325687705
1.2313680426
1.2307728042
1.2307945931
1.2313925354
1.2324849643
1.2339656395
1.2357193976
1.2376351344
1.2396136041
1.2415695547
1.2434300085
1.2451308028
1.2466145752
1.2478312523
1.2487411356
1.2493217604
1.2495753332
1.2495336008
1.2492605534
1.2488482566
1.2484040218
1.2480344326
1.2478259099
1.2439444971
1.1228844701
1.1218151394
1.1222172810
1.1230161072
1.1241993601
1.1257459973
1.1276244278
1.1297921765
1.1321978243
1.1347846688
1.1374957354
1.1402790733
1.1430911275
1.1458978078
1.1486727432
1.1513915939
1.1540230405
1.1565148716
1.1587682130
1.1605795835
1.1614776296
1.1628348572
1.2483677727
1.2472795803
1.2460894606
1.2449093812
1.2432583358
1.2411193896
1.2386282364
1.2359828904
1.2334003327
1.2310895264
1.2292304761
1.2279544915
1.2273325439
1.2273726616
1.2280248771
1.2291951906
1.2307639410
1.2326036313
1.2345933912
1.2366272176
1.2386165431
1.2404881727
1.2421798487
1.2436378601
1.2448168449
1.2456819818
1.2462156650
1.2464244665
1.2463433396
1.2460383126
1.2456022197
1.2451418358
1.2447625780
1.2445496599
1.2408360244
1.1249676167
1.1238176962
1.1242388371
1.1250750104
1.1263127749
1.1279294837
1.1298918102
1.1321559222
1.1346700057
1.1373786987
1.1402290575
1.1431768333
1.1461910642
1.1492568663
1.1523762837
1.1555672314
1.1588633618
1.1623182058
1.1660178638
1.1701095445
1.1748651548
1.1811145171
1.2031623766
1.2054905391
1.2430182012
1.2422248926
1.2425906419
1.2422782975
1.2410655555
1.2391104457
1.2366539198
1.2339608001
1.2312926736
1.2288889487
1.2269497268
1.2256174668
1.2249668683
1.2250038685
1.2256724507
1.2268706568
1.2284704092
1.2303368237
1.2323435296
1.2343809520
1.2363592959
1.2382063010
1.2398620829
1.2412766500
1.2424091702
1.2432292942
1.2437235828
1.2439018641
1.2438006695
1.2434858990
1.2430485623
1.2425921388
1.2422183102
1.2420090888
1.2384802644
1.1266994483
1.1254870160
1.1259228680
1.1267881036
1.1280686316
1.1297408485
1.1317702900
1.1341121375
1.1367141151
1.1395215113
1.1424839321
1.1455622560
1.1487338776
1.1519960072
1.1553664034
1.1588813602
1.1625931505
1.1665693722
1.1708987966
1.1757149683
1.1812749113
1.1883370222
1.2020021482
1.2041603358
1.2343453836
1.2382577939
1.2400383839
1.2404248679
1.2396135114
1.2378775076
1.2355204784
1.2328512889
1.2301634781
1.2277190660
1.2257331329
1.2243564905
1.2236671398
1.2236707799
1.2243092129
1.2254777448
1.2270455619
1.2288757415
1.2308407877
1.2328306090
1.2347559289
1.2365460865
1.2381434933
1.2395013766
1.2405827137
1.2413607697
1.2418252368
1.2419879027
1.2418852699
1.2415811792
1.2411626515
1.2407276789
1.2403722220
1.2401735744
1.2368292276
1.1281081694
1.1268511119
1.1272971534
1.1281827051
1.1294935511
1.1312057367
1.1332841412
1.1356830777
1.1383493014
1.1412273806
1.1442670387
1.1474305846
1.1506985846
1.1540734188
1.1575795701
1.1612605130
1.1651743426
1.1693905696
1.1739948993
1.1791180078
1.1850248637
1.1923808482
1.2033512991
1.2100276253
1.2314950115
1.2370582255
1.2393500042
1.2399501935
1.2392688923
1.2376164339
1.2353054252
1.2326515907
1.2299552810
1.2274843863
1.2254582119
1.2240299415
1.2232788125
1.2232113132
1.2237703858
1.2248532352
1.2263312861
1.2280701007
1.2299445683
1.2318463390
1.2336876914
1.2353996215
1.2369262792
1.2382232185
1.2392561935
1.2400010134
1.2404493438
1.2406136302
1.2405288958
1.2402553048
1.2398741793
1.2394763773
1.2391506881
1.2389685971
1.2357940018
1.1292278399
1.1279436985
1.1283954674
1.1292927213
1.1306216662
1.1323586505
1.1344684677
1.1369048190
1.1396132119
1.1425364983
1.1456226950
1.1488328772
1.1521473611
1.1555697164
1.1591269680
1.1628660112
1.1668483964
1.1711455144
1.1758417549
1.1810620243
1.1870506184
1.1943367932
1.2039569509
1.2125279747
1.2292687069
1.2360466952
1.2390474062
1.2399888283
1.2394895293
1.2379431745
1.2356939309
1.2330703960
1.2303783896
1.2278880675
1.2258196031
1.2243267773
1.2234902366
1.2233191672
1.2237608053
1.2247179539
1.2260678851
1.2276816440
1.2294385806
1.2312331982
1.2329795320
1.2346097547
1.2360689220
1.2373139041
1.2383121772
1.2390410828
1.2394932066
1.2396805182
1.2396353760
1.2394130063
1.2390877570
1.2387421891
1.2384569247
1.2382969042
1.2352666059
1.1300902899
1.1287962416
1.1292493734
1.1301499213
1.1314850898
1.1332322685
1.1353569143
1.1378126801
1.1405440330
1.1434918233
1.1466015032
1.1498315292
1.1531601879
1.1565902559
1.1601494234
1.1638866094
1.1678662853
1.1721622150
1.1768580525
1.1820701007
1.1880122699
1.1951061589
1.2039677494
1.2131461290
1.2272950517
1.2349085968
1.2386493469
1.2400263262
1.2397820399
1.2383915712
1.2362384083
1.2336689698
1.2309966231
1.2284944506
1.2263839146
1.2248203597
1.2238875225
1.2235995254
1.2239103343
1.2247305759
1.2259451565
1.2274317478
1.2290746270
1.2307710994
1.2324364485
1.2340032310
1.2354165795
1.2366338393
1.2376233958
1.2383633878
1.2388465402
1.2390834900
1.2391030594
1.2389546226
1.2387046559
1.2384266498
1.2381924153
1.2380598786
1.2351411658
1.1307190615
1.1294319856
1.1298821155
1.1307775465
1.1321070657
1.1338499024
1.1359730837
1.1384310656
1.1411679435
1.1441229244
1.1472388414
1.1504710880
1.1537951608
1.1572120538
1.1607490889
1.1644563193
1.1684005641
1.1726580333
1.1773127187
1.1824750088
1.1883377107
1.1952646476
1.2037358142
1.2129945771
1.2258590842
1.2339017053
1.2381493965
1.2398707785
1.2398486807
1.2386041726
1.2365462849
1.2340334950
1.2313842398
1.2288736906
1.2267248070
1.2250954490
1.2240737342
1.2236800126
1.2238759061
1.2245802108
1.2256853119
1.2270748763