<VTKFile type="UnstructuredGrid" version="0.1">
	<UnstructuredGrid>
		<Piece NumberOfPoints="13548" NumberOfCells="3387">
			<CellData>
				<DataArray type="Int32" Name="ghost" NumberOfComponents="1" Format="ascii">
1
1
1
1
1
1
1
1
1
1
1
1
1
1
1
1
1
1
1
1
1
1
1
1
1
1
1
1
1
1
1
1
1
1
1
1
1
1
1
1
1
1
1
1
1
1
1
1
1
1
1
1
1
1
1
1
1
1
0
0
0
0
0
0
0
0
0
0
0
0
0
0
0
0
0
0
0
0
1
1
0
0
0
0
0
0
0
0
0
0
0
0
0
0
0
0
0
0
0
0
0
0
0
0
0
0
0
0
0
0
0
0
0
1
1
0
0
0
0
0
0
0
0
0
0
0
0
0
0
0
0
0
0
0
0
1
1
0
0
0
0
0
0
0
0
0
0
0
0
0
0
0
0
0
0
0
0
0
0
0
0
0
0
0
0
0
0
0
0
0
1
1
0
0
0
0
0
0
0
0
0
0
0
0
0
0
0
0
0
0
0
0
1
1
0
0
0
0
0
0
0
0
0
0
0
0
0
0
0
0
0
0
0
0
0
0
0
0
0
0
0
0
0
0
0
0
0
1
1
0
0
0
0
0
0
0
0
0
0
0
0
0
0
0
0
0
0
0
0
1
1
0
0
0
0
0
0
0
0
0
0
0
0
0
0
0
0
0
0
0
0
0
0
0
0
0
0
0
0
0
0
0
0
0
1
1
0
0
0
0
0
0
0
0
0
0
0
0
0
0
0
0
0
0
0
0
1
1
0
0
0
0
0
0
0
0
0
0
0
0
0
0
0
0
0
0
0
0
0
0
0
0
0
0
0
0
0
0
0
0
0
1
1
0
0
0
0
0
0
0
0
0
0
0
0
0
0
0
0
0
0
0
0
1
1
0
0
0
0
0
0
0
0
0
0
0
0
0
0
0
0
0
0
0
0
0
0
0
0
0
0
0
0
0
0
0
0
0
1
1
0
0
0
0
0
0
0
0
0
0
0
0
0
0
0
0
0
0
0
0
1
1
0
0
0
0
0
0
0
0
0
0
0
0
0
0
0
0
0
0
0
0
0
0
0
0
0
0
0
0
0
0
0
0
0
1
1
0
0
0
0
0
0
0
0
0
0
0
0
0
0
0
0
0
0
0
0
1
1
0
0
0
0
0
0
0
0
0
0
0
0
0
0
0
0
0
0
0
0
0
0
0
0
0
0
0
0
0
0
0
0
0
1
1
0
0
0
0
0
0
0
0
0
0
0
0
0
0
0
0
0
0
0
0
1
1
0
0
0
0
0
0
0
0
0
0
0
0
0
0
0
0
0
0
0
0
0
0
0
0
0
0
0
0
0
0
0
0
0
1
1
0
0
0
0
0
0
0
0
0
0
0
0
0
0
0
0
0
0
0
0
1
1
0
0
0
0
0
0
0
0
0
0
0
0
0
0
0
0
0
0
0
0
0
0
0
0
0
0
0
0
0
0
0
0
0
1
1
0
0
0
0
0
0
0
0
0
0
0
0
0
0
0
0
0
0
0
0
1
1
0
0
0
0
0
0
0
0
0
0
0
0
0
0
0
0
0
0
0
0
0
0
0
0
0
0
0
0
0
0
0
0
0
1
1
0
0
0
0
0
0
0
0
0
0
0
0
0
0
0
0
0
0
0
0
1
1
0
0
0
0
0
0
0
0
0
0
0
0
0
0
0
0
0
0
0
0
0
0
0
0
0
0
0
0
0
0
0
0
0
1
1
0
0
0
0
0
0
0
0
0
0
0
0
0
0
0
0
0
0
0
0
1
1
0
0
0
0
0
0
0
0
0
0
0
0
0
0
0
0
0
0
0
0
0
0
0
0
0
0
0
0
0
0
0
0
0
1
1
0
0
0
0
0
0
0
0
0
0
0
0
0
0
0
0
0
0
0
0
1
1
0
0
0
0
0
0
0
0
0
0
0
0
0
0
0
0
0
0
0
0
0
0
0
0
0
0
0
0
0
0
0
0
0
1
1
0
0
0
0
0
0
0
0
0
0
0
0
0
0
0
0
0
0
0
0
1
1
0
0
0
0
0
0
0
0
0
0
0
0
0
0
0
0
0
0
0
0
0
0
0
0
0
0
0
0
0
0
0
0
0
1
1
0
0
0
0
0
0
0
0
0
0
0
0
0
0
0
0
0
0
0
0
1
1
0
0
0
0
0
0
0
0
0
0
0
0
0
0
0
0
0
0
0
0
0
0
0
0
0
0
0
0
0
0
0
0
0
1
1
0
0
0
0
0
0
0
0
0
0
0
0
0
0
0
0
0
0
0
0
1
1
0
0
0
0
0
0
0
0
0
0
0
0
0
0
0
0
0
0
0
0
0
0
0
0
0
0
0
0
0
0
0
0
0
1
1
0
0
0
0
0
0
0
0
0
0
0
0
0
0
0
0
0
0
0
0
1
1
0
0
0
0
0
0
0
0
0
0
0
0
0
0
0
0
0
0
0
0
0
0
0
0
0
0
0
0
0
0
0
0
0
1
1
0
0
0
0
0
0
0
0
0
0
0
0
0
0
0
0
0
0
0
0
1
1
0
0
0
0
0
0
0
0
0
0
0
0
0
0
0
0
0
0
0
0
0
0
0
0
0
0
0
0
0
0
0
0
0
1
1
0
0
0
0
0
0
0
0
0
0
0
0
0
0
0
0
0
0
0
0
1
1
0
0
0
0
0
0
0
0
0
0
0
0
0
0
0
0
0
0
0
0
0
0
0
0
0
0
0
0
0
0
0
0
0
1
1
0
0
0
0
0
0
0
0
0
0
0
0
0
0
0
0
0
0
0
0
1
1
0
0
0
0
0
0
0
0
0
0
0
0
0
0
0
0
0
0
0
0
0
0
0
0
0
0
0
0
0
0
0
0
0
1
1
0
0
0
0
0
0
0
0
0
0
0
0
0
0
0
0
0
0
0
0
1
1
0
0
0
0
0
0
0
0
0
0
0
0
0
0
0
0
0
0
0
0
0
0
0
0
0
0
0
0
0
0
0
0
0
1
1
0
0
0
0
0
0
0
0
0
0
0
0
0
0
0
0
0
0
0
0
1
1
0
0
0
0
0
0
0
0
0
0
0
0
0
0
0
0
0
0
0
0
0
0
0
0
0
0
0
0
0
0
0
0
0
1
1
0
0
0
0
0
0
0
0
0
0
0
0
0
0
0
0
0
0
0
0
1
1
0
0
0
0
0
0
0
0
0
0
0
0
0
0
0
0
0
0
0
0
0
0
0
0
0
0
0
0
0
0
0
0
0
1
1
0
0
0
0
0
0
0
0
0
0
0
0
0
0
0
0
0
0
0
0
0
1
1
0
0
0
0
0
0
0
0
0
0
0
0
0
0
0
0
0
0
0
0
0
0
0
0
0
0
0
0
0
0
0
0
0
0
1
1
0
0
0
0
0
0
0
0
0
0
0
0
0
0
0
0
0
0
0
0
0
0
0
0
0
0
0
0
0
0
0
0
0
0
0
0
0
0
0
0
0
0
0
0
0
0
0
0
0
0
0
0
0
0
0
0
0
1
1
0
0
0
0
0
0
0
0
0
0
0
0
0
0
0
0
0
0
0
0
0
0
0
0
0
0
0
0
0
0
0
0
0
0
0
0
0
0
0
0
0
0
0
0
0
0
0
0
0
0
0
0
0
0
0
0
0
1
1
0
0
0
0
0
0
0
0
0
0
0
0
0
0
0
0
0
0
0
0
0
0
0
0
0
0
0
0
0
0
0
0
0
0
0
0
0
0
0
0
0
0
0
0
0
0
0
0
0
0
0
0
0
0
0
0
0
1
1
0
0
0
0
0
0
0
0
0
0
0
0
0
0
0
0
0
0
0
0
0
0
0
0
0
0
0
0
0
0
0
0
0
0
0
0
0
0
0
0
0
0
0
0
0
0
0
0
0
0
0
0
0
0
0
0
0
1
1
0
0
0
0
0
0
0
0
0
0
0
0
0
0
0
0
0
0
0
0
0
0
0
0
0
0
0
0
0
0
0
0
0
0
0
0
0
0
0
0
0
0
0
0
0
0
0
0
0
0
0
0
0
0
0
0
0
1
1
0
0
0
0
0
0
0
0
0
0
0
0
0
0
0
0
0
0
0
0
0
0
0
0
0
0
0
0
0
0
0
0
0
0
0
0
0
0
0
0
0
0
0
0
0
0
0
0
0
0
0
0
0
0
0
0
0
1
1
0
0
0
0
0
0
0
0
0
0
0
0
0
0
0
0
0
0
0
0
0
0
0
0
0
0
0
0
0
0
0
0
0
0
0
0
0
0
0
0
0
0
0
0
0
0
0
0
0
0
0
0
0
0
0
0
0
1
1
0
0
0
0
0
0
0
0
0
0
0
0
0
0
0
0
0
0
0
0
0
0
0
0
0
0
0
0
0
0
0
0
0
0
0
0
0
0
0
0
0
0
0
0
0
0
0
0
0
0
0
0
0
0
0
0
0
1
1
0
0
0
0
0
0
0
0
0
0
0
0
0
0
0
0
0
0
0
0
0
0
0
0
0
0
0
0
0
0
0
0
0
0
0
0
0
0
0
0
0
0
0
0
0
0
0
0
0
0
0
0
0
0
0
0
0
1
1
0
0
0
0
0
0
0
0
0
0
0
0
0
0
0
0
0
0
0
0
0
0
0
0
0
0
0
0
0
0
0
0
0
0
0
0
0
0
0
0
0
0
0
0
0
0
0
0
0
0
0
0
0
0
0
0
0
1
1
0
0
0
0
0
0
0
0
0
0
0
0
0
0
0
0
0
0
0
0
0
1
1
0
0
0
0
0
0
0
0
0
0
0
0
0
0
0
0
0
0
0
0
0
0
0
0
0
0
0
0
0
0
0
0
0
0
1
1
0
0
0
0
0
0
0
0
0
0
0
0
0
0
0
0
0
0
0
0
1
1
0
0
0
0
0
0
0
0
0
0
0
0
0
0
0
0
0
0
0
0
0
0
0
0
0
0
0
0
0
0
0
0
0
1
1
0
0
0
0
0
0
0
0
0
0
0
0
0
0
0
0
0
0
0
0
1
1
0
0
0
0
0
0
0
0
0
0
0
0
0
0
0
0
0
0
0
0
0
0
0
0
0
0
0
0
0
0
0
0
0
1
1
0
0
0
0
0
0
0
0
0
0
0
0
0
0
0
0
0
0
0
0
1
1
0
0
0
0
0
0
0
0
0
0
0
0
0
0
0
0
0
0
0
0
0
0
0
0
0
0
0
0
0
0
0
0
0
1
1
0
0
0
0
0
0
0
0
0
0
0
0
0
0
0
0
0
0
0
0
1
1
0
0
0
0
0
0
0
0
0
0
0
0
0
0
0
0
0
0
0
0
0
0
0
0
0
0
0
0
0
0
0
0
0
1
1
0
0
0
0
0
0
0
0
0
0
0
0
0
0
0
0
0
0
0
0
1
1
0
0
0
0
0
0
0
0
0
0
0
0
0
0
0
0
0
0
0
0
0
0
0
0
0
0
0
0
0
0
0
0
0
1
1
0
0
0
0
0
0
0
0
0
0
0
0
0
0
0
0
0
0
0
0
1
1
0
0
0
0
0
0
0
0
0
0
0
0
0
0
0
0
0
0
0
0
0
0
0
0
0
0
0
0
0
0
0
0
0
1
1
0
0
0
0
0
0
0
0
0
0
0
0
0
0
0
0
0
0
0
0
1
1
0
0
0
0
0
0
0
0
0
0
0
0
0
0
0
0
0
0
0
0
0
0
0
0
0
0
0
0
0
0
0
0
0
1
1
0
0
0
0
0
0
0
0
0
0
0
0
0
0
0
0
0
0
0
0
1
1
0
0
0
0
0
0
0
0
0
0
0
0
0
0
0
0
0
0
0
0
0
0
0
0
0
0
0
0
0
0
0
0
0
1
1
0
0
0
0
0
0
0
0
0
0
0
0
0
0
0
0
0
0
0
0
1
1
0
0
0
0
0
0
0
0
0
0
0
0
0
0
0
0
0
0
0
0
0
0
0
0
0
0
0
0
0
0
0
0
0
1
1
0
0
0
0
0
0
0
0
0
0
0
0
0
0
0
0
0
0
0
0
1
1
0
0
0
0
0
0
0
0
0
0
0
0
0
0
0
0
0
0
0
0
0
0
0
0
0
0
0
0
0
0
0
0
0
1
1
0
0
0
0
0
0
0
0
0
0
0
0
0
0
0
0
0
0
0
0
1
1
0
0
0
0
0
0
0
0
0
0
0
0
0
0
0
0
0
0
0
0
0
0
0
0
0
0
0
0
0
0
0
0
0
1
1
0
0
0
0
0
0
0
0
0
0
0
0
0
0
0
0
0
0
0
0
1
1
0
0
0
0
0
0
0
0
0
0
0
0
0
0
0
0
0
0
0
0
0
0
0
0
0
0
0
0
0
0
0
0
0
1
1
0
0
0
0
0
0
0
0
0
0
0
0
0
0
0
0
0
0
0
0
1
1
0
0
0
0
0
0
0
0
0
0
0
0
0
0
0
0
0
0
0
0
0
0
0
0
0
0
0
0
0
0
0
0
0
1
1
0
0
0
0
0
0
0
0
0
0
0
0
0
0
0
0
0
0
0
0
1
1
0
0
0
0
0
0
0
0
0
0
0
0
0
0
0
0
0
0
0
0
0
0
0
0
0
0
0
0
0
0
0
0
0
1
1
0
0
0
0
0
0
0
0
0
0
0
0
0
0
0
0
0
0
0
0
1
1
0
0
0
0
0
0
0
0
0
0
0
0
0
0
0
0
0
0
0
0
0
0
0
0
0
0
0
0
0
0
0
0
0
1
1
0
0
0
0
0
0
0
0
0
0
0
0
0
0
0
0
0
0
0
0
1
1
0
0
0
0
0
0
0
0
0
0
0
0
0
0
0
0
0
0
0
0
0
0
0
0
0
0
0
0
0
0
0
0
0
1
1
0
0
0
0
0
0
0
0
0
0
0
0
0
0
0
0
0
0
0
0
1
1
0
0
0
0
0
0
0
0
0
0
0
0
0
0
0
0
0
0
0
0
0
0
0
0
0
0
0
0
0
0
0
0
0
1
1
0
0
0
0
0
0
0
0
0
0
0
0
0
0
0
0
0
0
0
0
1
1
0
0
0
0
0
0
0
0
0
0
0
0
0
0
0
0
0
0
0
0
0
0
0
0
0
0
0
0
0
0
0
0
0
1
1
0
0
0
0
0
0
0
0
0
0
0
0
0
0
0
0
0
0
0
0
1
1
0
0
0
0
0
0
0
0
0
0
0
0
0
0
0
0
0
0
0
0
0
0
0
0
0
0
0
0
0
0
0
0
0
1
1
0
0
0
0
0
0
0
0
0
0
0
0
0
0
0
0
0
0
0
0
1
1
0
0
0
0
0
0
0
0
0
0
0
0
0
0
0
0
0
0
0
0
0
0
0
0
0
0
0
0
0
0
0
0
0
1
1
0
0
0
0
0
0
0
0
0
0
0
0
0
0
0
0
0
0
0
0
1
1
0
0
0
0
0
0
0
0
0
0
0
0
0
0
0
0
0
0
0
0
0
0
0
0
0
0
0
0
0
0
0
0
0
1
1
1
1
1
1
1
1
1
1
1
1
1
1
1
1
1
1
1
1
1
1
1
1
1
1
1
1
1
1
1
1
1
1
1
1
1
1
1
1
1
1
1
1
1
1
1
1
1
1
1
1
1
1
1
1
1
1
				</DataArray>
				<DataArray type="Float64" Name="h" NumberOfComponents="1" Format="ascii">
1.3147196578
1.3125355058
1.3131755468
1.3144498009
1.3163459794
1.3188445113
1.3219169877
1.3255246949
1.3296172255
1.3341305820
1.3389860330
1.3440891301
1.3493285020
1.3545760723
1.3596881557
1.3645077430
1.3688698979
1.3726098487
1.3755734257
1.3776296265
1.3786829486
1.3786829486
1.1461174548
1.1467685422
1.1467600231
1.1467298318
1.1466564902
1.1465147236
1.1462791062
1.1459260167
1.1454324193
1.1447745035
1.1439264571
1.1428576909
1.1415306203
1.1398983441
1.1379007290
1.1354610737
1.1324829542
1.1288475007
1.1244149536
1.1190319702
1.1125483531
1.1048479137
1.0958908487
1.0857622979
1.0747123590
1.0631621540
1.0516622094
1.0408045906
1.0311129188
1.0229563404
1.0165170932
1.0118148152
1.0087710608
1.0072830945
1.0072830945
1.3125355058
1.3106456189
1.3112462120
1.3124444673
1.3142335982
1.3166016963
1.3195295708
1.3229885807
1.3269386015
1.3313254797
1.3360792054
1.3411122730
1.3463177625
1.3515688633
1.3567194570
1.3616061910
1.3660542273
1.3698862957
1.3729346648
1.3750556988
1.3761441135
1.3786829486
1.1467685422
1.1472856025
1.1472893852
1.1472836716
1.1472468117
1.1471534579
1.1469783687
1.1466985147
1.1462919785
1.1457366884
1.1450093168
1.1440826467
1.1429235077
1.1414906486
1.1397309435
1.1375759780
1.1349384943
1.1317085360
1.1277527189
1.1229178409
1.1170422581
1.1099805262
1.1016410837
1.0920352043
1.0813268307
1.0698593780
1.0581404466
1.0467745114
1.0363556293
1.0273634813
1.0201017944
1.0146963423
1.0111457207
1.0093938096
1.0072830945
1.3136247264
1.3117306125
1.3123076416
1.3134600385
1.3151834001
1.3174690224
1.3203013862
1.3236556111
1.3274950901
1.3317687100
1.3364088869
1.3413299108
1.3464261446
1.3515717564
1.3566216095
1.3614136900
1.3657751472
1.3695314811
1.3725183751
1.3745957902
1.3756615055
1.3782600410
1.1456616164
1.1462632988
1.1462675190
1.1462614425
1.1462215282
1.1461205238
1.1459316092
1.1456305478
1.1451944868
1.1446005813
1.1438248406
1.1428395383
1.1416113164
1.1400993694
1.1382521725
1.1360048619
1.1332767608
1.1299688729
1.1259645051
1.1211336142
1.1153432674
1.1084781843
1.1004699783
1.0913337511
1.0812054578
1.0703639814
1.0592265352
1.0483082747
1.0381472110
1.0292199153
1.0218765824
1.0163170868
1.0126154082
1.0107728969
1.0084495187
1.3157568823
1.3138522282
1.3143840983
1.3154484826
1.3170453288
1.3191718275
1.3218192829
1.3249698956
1.3285937791
1.3326457346
1.3370629988
1.3417635337
1.3466444227
1.3515819809
1.3564332156
1.3610389093
1.3652302000
1.3688380043
1.3717045850
1.3736967761
1.3747181878
1.3774317650
1.1434304693
1.1441943712
1.1442000609
1.1441943834
1.1441499610
1.1440357425
1.1438218387
1.1434817624
1.1429910279
1.1423255632
1.1414604704
1.1403675408
1.1390137071
1.1373598422
1.1353584677
1.1329525578
1.1300748988
1.1266477211
1.1225852045
1.1177983689
1.1122030835
1.1057329957
1.0983547684
1.0900855704
1.0810121090
1.0713061487
1.0612354918
1.0511633145
1.0415237457
1.0327741567
1.0253333261
1.0195270384
1.0155671257
1.0135655439
1.0108269315
1.3188430683
1.3169182296
1.3173870751
1.3183283194
1.3197474528
1.3216492869
1.3240341233
1.3268937214
1.3302075141
1.3339387600
1.3380318423
1.3424104134
1.3469760000
1.3516085839
1.3561688067
1.3605019219
1.3644450745
1.3678370176
1.3705293062
1.3723983552
1.3733558551
1.3762316003
1.1400529348
1.1410414073
1.1410508900
1.1410488292
1.1410019620
1.1408735734
1.1406293987
1.1402399798
1.1396789572
1.1389211757
1.1379413418
1.1367117229
1.1352011166
1.1333745033
1.1311920274
1.1286094988
1.1255797353
1.1220541918
1.1179866960
1.1133375847
1.1080774337
1.1021905386
1.0956753564
1.0885438779
1.0808245230
1.0725721747
1.0638921098
1.0549740813
1.0461178326
1.0377312854
1.0302879205
1.0242525241
1.0200103110
1.0178244919
1.0144906691
1.3227567260
1.3207990591
1.3211920692
1.3219845954
1.3231878531
1.3248147297
1.3268753851
1.3293724627
1.3322964624
1.3356211569
1.3393002713
1.3432653308
1.3474243925
1.3516630765
1.3558475704
1.3598295397
1.3634541654
1.3665701606
1.3690405231
1.3707532666
1.3716298000
1.3747037364
1.1355285432
1.1367786245
1.1367963927
1.1368053004
1.1367639968
1.1366282862
1.1363584865
1.1359218939
1.1352906362
1.1344393667
1.1333438004
1.1319786486
1.1303171955
1.1283318846
1.1259945585
1.1232784364
1.1201608777
1.1166259917
1.1126681235
1.1082936366
1.1035193951
1.0983676369
1.0928553745
1.0869820975
1.0807230910
1.0740358425
1.0668896438
1.0593187353
1.0514824056
1.0437065940
1.0364761768
1.0303646571
1.0259266499
1.0235920953
1.0195215735
1.3273417257
1.3253375596
1.3256476824
1.3262768499
1.3272411220
1.3285605470
1.3302545454
1.3323366392
1.3348091105
1.3376576606
1.3408473170
1.3443197749
1.3479920656
1.3517578872
1.3554913207
1.3590526511
1.3622971198
1.3650852103
1.3672929518
1.3688213210
1.3696025309
1.3728978172
1.1299129982
1.1314255288
1.1314592580
1.1314925471
1.1314735216
1.1313487247
1.1310722978
1.1306084740
1.1299288025
1.1290092857
1.1278287285
1.1263668671
1.1246044803
1.1225247349
1.1201143050
1.1173661306
1.1142825587
1.1108775749
1.1071786516
1.1032254270
1.0990637201
1.0947350268
1.0902608437
1.0856262150
1.0807697515
1.0755875136
1.0699608573
1.0638122192
1.0571793828
1.0502869833
1.0435781869
1.0376712917
1.0332416711
1.0308631476
1.0259712371
1.3324236377
1.3303614711
1.3305873781
1.3310495139
1.3317669976
1.3327649086
1.3340699617
1.3357052160
1.3376843234
1.3400055380
1.3426467508
1.3455620906
1.3486802455
1.3519058087
1.3551234678
1.3582045530
1.3610163727
1.3634327227
1.3653438083
1.3666644593
1.3673384297
1.3708647368
1.1233492668
1.1250804940
1.1251419892
1.1252208693
1.1252519372
1.1251706430
1.1249243741
1.1244747619
1.1237939937
1.1228611791
1.1216603555
1.1201786344
1.1184065703
1.1163398484
1.1139806410
1.1113402605
1.1084416538
1.1053202917
1.1020239005
1.0986086669
1.0951310052
1.0916356928
1.0881404305
1.0846205824
1.0809996596
1.0771510678
1.0729196011
1.0681688114
1.0628520459
1.0570949464
1.0512566374
1.0459226753
1.0418031317
1.0395486638
1.0338244009
1.3378204665
1.3356946795
1.3358400038
1.3361410832
1.3366177570
1.3372971826
1.3382103623
1.3393874025
1.3408518068
1.3426140897
1.3446659508
1.3469759310
1.3494870557
1.3521178025
1.3547663906
1.3573177538
1.3596532564
1.3616613838
1.3632474292
1.3643407883
1.3648974575
1.3686513287
1.1160840568
1.1179445619
1.1180503335
1.1182047111
1.1183257847
1.1183358380
1.1181748542
1.1178022203
1.1171917335
1.1163269039
1.1151983794
1.1138018071
1.1121380515
1.1102147078
1.1080470535
1.1056599081
1.1030889504
1.1003801121
1.0975877486
1.0947698975
1.0919802684
1.0892581277
1.0866162028
1.0840290903
1.0814257326
1.0786893947
1.0756715276
1.0722260046
1.0682660191
1.0638397174
1.0592015402
1.0548337788
1.0513763527
1.0494535242
1.0429692654
1.3433530777
1.3411671637
1.3412392161
1.3413925528
1.3416452940
1.3420234436
1.3425587518
1.3432850951
1.3442333516
1.3454250196
1.3468656979
1.3485397028
1.3504067250
1.3524019820
1.3544401393
1.3564223112
1.3582459033
1.3598154487
1.3610522753
1.3619012324
1.3623316028
1.3662974548
1.1084524662
1.1103176113
1.1104887746
1.1107566725
1.1110183896
1.1111804732
1.1111744467
1.1109572450
1.1105044233
1.1098040824
1.1088534555
1.1076561561
1.1062218451
1.1045671612
1.1027158736
1.1006997057
1.0985585544
1.0963388983
1.0940914526
1.0918669984
1.0897102795
1.0876531590
1.0857068824
1.0838546848
1.0820466994
1.0801988785
1.0782001887
1.0759333837
1.0733128123
1.0703400734
1.0671644449
1.0641138627
1.0616572861
1.0602752513
1.0531836175
1.3488551104
1.3466236445
1.3466319032
1.3466553713
1.3467083545
1.3468127578
1.3469975862
1.3472968940
1.3477457704
1.3483744641
1.3492015152
1.3502274157
1.3514300959
1.3527638648
1.3541624689
1.3555456677
1.3568289050
1.3579342514
1.3588003101
1.3593887973
1.3596840648
1.3638355705
1.1008247387
1.1025563921
1.1028178525
1.1032432535
1.1037031574
1.1040851229
1.1043105206
1.1043327368
1.1041280667
1.1036880246
1.1030149199
1.1021182463
1.1010135360
1.0997225210
1.0982724147
1.0966958482
1.0950304340
1.0933168867
1.0915970629
1.0899112563
1.0882946422
1.0867739468
1.0853638983
1.0840637768
1.0828549257
1.0816995802
1.0805432092
1.0793234075
1.0779873097
1.0765193648
1.0749739176
1.0734947524
1.0723018668
1.0716293318
1.0641451702
1.3541787768
1.3519276839
1.3518823834
1.3517957610
1.3516768790
1.3515413364
1.3514124620
1.3513210705
1.3513029721
1.3513941262
1.3516239245
1.3520082001
1.3525435682
1.3532049068
1.3539471156
1.3547108026
1.3554314492
1.3560503914
1.3565252439
1.3568368247
1.3569874794
1.3612890855
1.0935335772
1.0950067071
1.0953861070
1.0960161129
1.0967337634
1.0974037148
1.0979348694
1.0982750623
1.0983991931
1.0982998743
1.0979819927
1.0974581371
1.0967465386
1.0958704643
1.0948567541
1.0937351788
1.0925378084
1.0912973481
1.0900460148
1.0888145247
1.0876309840
1.0865206833
1.0855061833
1.0846074473
1.0838421376
1.0832252684
1.0827683396
1.0824780340
1.0823532987
1.0823812459
1.0825316589
1.0827508238
1.0829648169
1.0830973941
1.0754676132
1.3591979270
1.3569629671
1.3568740569
1.3566970028
1.3564350000
1.3560961112
1.3556959623
1.3552592863
1.3548191756
1.3544137161
1.3540800087
1.3538470411
1.3537291761
1.3537221616
1.3538032957
1.3539358050
1.3540771394
1.3541898747
1.3542529468
1.3542695326
1.3542644568
1.3586728525
1.0868054988
1.0879299884
1.0884571402
1.0893397877
1.0903728550
1.0913938508
1.0922965803
1.0930206747
1.0935367149
1.0938354596
1.0939216008
1.0938082448
1.0935139219
1.0930612706
1.0924749687
1.0917807664
1.0910049358
1.0901730209
1.0893096040
1.0884387948
1.0875851560
1.0867760867
1.0860450235
1.0854348924
1.0850013602
1.0848139122
1.0849527257
1.0854980187
1.0865068039
1.0879754310
1.0897928315
1.0917051297
1.0933345731
1.0942812887
1.0867501675
1.3638101683
1.3616339515
1.3615105303
1.3612614086
1.3608840464
1.3603787198
1.3597523389
1.3590215248
1.3582135922
1.3573649613
1.3565164961
1.3557069032
1.3549659160
1.3543091081
1.3537363827
1.3532347224
1.3527852381
1.3523738232
1.3520035205
1.3517042161
1.3515297172
1.3559952543
1.0807193628
1.0814495652
1.0821570273
1.0833408534
1.0847438265
1.0861724088
1.0875028569
1.0886636015
1.0896174887
1.0903502277
1.0908637599
1.0911698735
1.0912862370
1.0912343489
1.0910368868
1.0907165089
1.0902954566
1.0897946926
1.0892344021
1.0886356548
1.0880229251
1.0874286102
1.0868989541
1.0865006316
1.0863269867
1.0865006677
1.0871683063
1.0884802535
1.0905464849
1.0933661427
1.0967428258
1.1002273847
1.1031596841
1.1048504728
1.0976291163
1.3679364646
1.3658644585
1.3657146484
1.3654101590
1.3649434076
1.3643074185
1.3635002773
1.3625293179
1.3614136139
1.3601842698
1.3588815516
1.3575495167
1.3562296250
1.3549548919
1.3537468628
1.3526165573
1.3515699240
1.3506180396
1.3497910131
1.3491508078
1.3487893186
1.3532574198
1.0752032295
1.0755342098
1.0764595554
1.0779955134
1.0798217221
1.0817110077
1.0835202450
1.0851633850
1.0865915951
1.0877820990
1.0887318112
1.0894501629
1.0899539946
1.0902645688
1.0904041777
1.0903946398
1.0902569818
1.0900108408
1.0896755055
1.0892724532
1.0888291280
1.0883852663
1.0880012518
1.0877676270
1.0878141155
1.0883134152
1.0894728879
1.0915034579
1.0945538615
1.0986094718
1.1033785810
1.1082289098
1.1122636141
1.1145720431
1.1078185198
1.3715205450
1.3695966350
1.3694277553
1.3690831315
1.3685511282
1.3678185281
1.3668751265
1.3657185348
1.3643578120
1.3628155472
1.3611270853
1.3593370103
1.3574939673
1.3556448663
1.3538307206
1.3520857788
1.3504411062
1.3489341183
1.3476245779
1.3466126263
1.3460407251
1.3504534001
1.0700563393
1.0700114007
1.0712014789
1.0731469650
1.0754534090
1.0778599801
1.0802031412
1.0823783874
1.0843202085
1.0859932337
1.0873870389
1.0885082166
1.0893737561
1.0900066662
1.0904314706
1.0906721698
1.0907518413
1.0906921739
1.0905149088
1.0902450580
1.0899157407
1.0895761023
1.0893018576
1.0892074372
1.0894573025
1.0902699705
1.0919052096
1.0946202903
1.0985821194
1.1037399666
1.1096961016
1.1156552810
1.1205449345
1.1233165517
1.1171288268
1.3745293922
1.3727916159
1.3726104560
1.3722398668
1.3716651884
1.3708681232
1.3698310439
1.3685419423
1.3669987738
1.3652130949
1.3632114837
1.3610343089
1.3587324539
1.3563623214
1.3539810579
1.3516440332
1.3494063664
1.3473315928
1.3455104970
1.3440875988
1.3432727518
1.3475704116
1.0649771378
1.0645930921
1.0661108959
1.0685355827
1.0713899847
1.0743837717
1.0773324420
1.0801072815
1.0826190008
1.0848140991
1.0866720163
1.0881963373
1.0894059758
1.0903286145
1.0909944668
1.0914333202
1.0916738316
1.0917431005
1.0916684569
1.0914812933
1.0912228927
1.0909538240
1.0907664392
1.0907992511
1.0912497559
1.0923773077
1.0944838271
1.0978555036
1.1026533948
1.1087672335
1.1156864146
1.1224807743
1.1279688938
1.1310469199
1.1254666091
1.3769529339
1.3754298749
1.3752428825
1.3748597049
1.3742635260
1.3734320211
1.3723410723
1.3709694863
1.3693036475
1.3673423846
1.3651004880
1.3626099428
1.3599190213
1.3570887372
1.3541880117
1.3512897811
1.3484703738
1.3458170765
1.3434506481
1.3415650616
1.3404598488
1.3445835537
1.0595815367
1.0588969153
1.0608332861
1.0638279861
1.0673193123
1.0709974757
1.0746555473
1.0781310829
1.0813003579
1.0840840608
1.0864480383
1.0883931452
1.0899430334
1.0911341628
1.0920069218
1.0926012115
1.0929551707
1.0931047511
1.0930858989
1.0929390527
1.0927160259
1.0924908394
1.0923739459
1.0925283261
1.0931827922
1.0946319929
1.0972084379
1.1012081509
1.1067618551
1.1136792921
1.1213369294
1.1287036524
1.1345534529
1.1377971221
1.1328201467
1.3788035513
1.3775118454
1.3773251168
1.3769418639
1.3763437237
1.3755051487
1.3743963650
1.3729876176
1.3712538004
1.3691801944
1.3667678189
1.3640370330
1.3610291667
1.3578048473
1.3544395866
1.3510188345
1.3476351380
1.3443941800
1.3414415728
1.3390223387
1.3375541750
1.3414484614
1.0534024705
1.0524513118
1.0549459027
1.0586370755
1.0628925393
1.0673998944
1.0719239310
1.0762520923
1.0802106407
1.0836846833
1.0866231260
1.0890257454
1.0909255855
1.0923737500
1.0934267192
1.0941398371
1.0945652017
1.0947512944
1.0947457070
1.0946004702
1.0943801692
1.0941742505
1.0941127555
1.0943835535
1.0952449337
1.0970208589
1.1000622102
1.1046556856
1.1108793776
1.1184484003
1.1266337776
1.1343399565
1.1403516109
1.1436460745
1.1392359022
1.3801147300
1.3790580730
1.3788771130
1.3785049600
1.3779220568
1.3771001787
1.3760046014
1.3745977680
1.3728436564
1.3707140396
1.3681952864
1.3652939920
1.3620410016
1.3584917490
1.3547225615
1.3508249167
1.3469002213
1.3430633990
1.3394734847
1.3364201991
1.3344727845
1.3380891337
1.0458683757
1.0446801944
1.0479610414
1.0525371853
1.0577527029
1.0633134612
1.0689384458
1.0743380905
1.0792684912
1.0835697268
1.0871732440
1.0900829053
1.0923489975
1.0940456134
1.0952529947
1.0960483773
1.0965029003
1.0966814909
1.0966463998
1.0964636197
1.0962125130
1.0959996914
1.0959760602
1.0963545828
1.0974209104
1.0995220325
1.1030150276
1.1081595368
1.1149629593
1.1230382828
1.1315649191
1.1394181114
1.1454358651
1.1486951673
1.1447955054
1.3809376439
1.3801073487
1.3799366374
1.3795846031
1.3790306751
1.3782443330
1.3771865532
1.3758129016
1.3740774833
1.3719393991
1.3693705409
1.3663627203
1.3629336636
1.3591292004
1.3550203385
1.3506968164
1.3462591095
1.3418177355
1.3375245676
1.3336915876
1.3310699786
1.3343708923
1.0362481336
1.0348535702
1.0393183259
1.0450865960
1.0515877994
1.0585565630
1.0656250227
1.0723889532
1.0785159939
1.0837996324
1.0881619385
1.0916229249
1.0942626488
1.0961893245
1.0975161184
1.0983492862
1.0987842630
1.0989062222
1.0987947927
1.0985318871
1.0982131819
1.0979637014
1.0979559928
1.0984278365
1.0996897150
1.1021052231
1.1060262081
1.1116701996
1.1189612950
1.1274098842
1.1361215976
1.1439731958
1.1498850397
1.1530504728
1.1495957639
1.3813361501
1.3807131058
1.3805555414
1.3802294426
1.3797133542
1.3789748204
1.3779712421
1.3766524732
1.3749642595
1.3728545996
1.3702820523
1.3672237080
1.3636825112
1.3596908531
1.3553081607
1.3506135705
1.3456944069
1.3406380660
1.3355560880
1.3307298024
1.3270924833
1.3300561977
1.0235071398
1.0219485026
1.0283534123
1.0358807158
1.0442488973
1.0531843325
1.0621626383
1.0706340134
1.0781821583
1.0845756322
1.0897522121
1.0937702570
1.0967570277
1.0988676324
1.1002572821
1.1010676078
1.1014225927
1.1014304604
1.1011900079
1.1008001563
1.1003736057
1.1000542376
1.1000362409
1.1005812283
1.1020214897
1.1047308933
1.1090460048
1.1151307376
1.1228191038
1.1315243088
1.1402974025
1.1480408304
1.1537737014
1.1568097436
1.1537327679
1.3813806299
1.3809382828
1.3807945740
1.3804958578
1.3800199548
1.3793329022
1.3783893885
1.3771349799
1.3755090110
1.3734506187
1.3709071189
1.3678421298
1.3642434451
1.3601273297
1.3555359710
1.3505286049
1.3451650591
1.3394853028
1.3335106379
1.3273834884
1.3221055784
1.3247315881
1.0058108167
1.0041570752
1.0141875195
1.0247069344
1.0360237642
1.0477541374
1.0591823695
1.0696561436
1.0787455235
1.0862592319
1.0921988750
1.0966925478
1.0999334574
1.1021339727
1.1034968585
1.1042018972
1.1044028101
1.1042312331
1.1038050125
1.1032396510
1.1026643237
1.1022411096
1.1021848476
1.1027791679
1.1043746862
1.1073495837
1.1120170002
1.1184797326
1.1264804172
1.1353446920
1.1440873224
1.1516532991
1.1571663804
1.1600558968
1.1572926772
1.3811435844
1.3808512618
1.3807193806
1.3804440078
1.3800023680
1.3793593619
1.3784677441
1.3772701379
1.3757014039
1.3736942330
1.3711873243
1.3681331641
1.3645058683
1.3603056467
1.3555554681
1.3502896902
1.3445302929
1.3382459062
1.3313012164
1.3234947168
1.3154063085
1.3177228557
0.9784280178
0.9767960908
0.9955203667
1.0121171485
1.0282898903
1.0437996397
1.0580383093
1.0705106970
1.0809583040
1.0893446987
1.0957972583
1.1005419612
1.1038468714
1.1059809553
1.1071902286
1.1076875758
1.1076517980
1.1072340886
1.1065682341
1.1057837629
1.1050241944
1.1044678940
1.1043483341
1.1049685798
1.1066938191
1.1099013040
1.1148749118
1.1216529075
1.1298899481
1.1388361655
1.1474858507
1.1548363849
1.1601141431
1.1628538043
1.1603463708
1.3806990918
1.3805250334
1.3804001627
1.3801384004
1.3797162345
1.3790973086
1.3782324161
1.3770613575
1.3755147097
1.3735187804
1.3710032940
1.3679083798
1.3641921222
1.3598357026
1.3548412432
1.3492231970
1.3429881042
1.3360884972
1.3283181016
1.3190653270
1.3070155019
1.3090961401
0.9242872437
0.9228755632
0.9710501729
1.0013445494
1.0249166143
1.0445546161
1.0610619722
1.0747181719
1.0857185866
1.0942933178
1.1007221129
1.1053171207
1.1083958848
1.1102571174
1.1111671156
1.1113541361
1.1110091152
1.1102936652
1.1093511002
1.1083203788
1.1073559235
1.1066495601
1.1064507101
1.1070788856
1.1089102166
1.1123169166
1.1175503613
1.1245847604
1.1329938718
1.1419653128
1.1504853942
1.1576076597
1.1626535684
1.1652499691
1.1629474828
1.3801252455
1.3800388608
1.3799147009
1.3796537419
1.3792313114
1.3786090914
1.3777347847
1.3765435053
1.3749582691
1.3728930177
1.3702574511
1.3669587661
1.3629007122
1.3579742304
1.3520271646
1.3448014704
1.3358042913
1.3240295472
1.3073293131
1.2808354612
1.2325150999
1.1291908654
0.9872753575
1.0194994470
0.9969997735
1.0013427076
1.0174307192
1.0318080046
1.0462925986
1.0603165075
1.0731733198
1.0843765763
1.0936907142
1.1010798893
1.1066483142
1.1105901704
1.1131447267
1.1145605195
1.1150744669
1.1148996374
1.1142204759
1.1131976982
1.1119772041
1.1107029708
1.1095372519
1.1086828355
1.1084026581
1.1090299852
1.1109489381
1.1145241378
1.1199739590
1.1272125242
1.1357424197
1.1447015239
1.1530771085
1.1599777801
1.1648090700
1.1672756486
1.1651344418
1.3795045646
1.3794776097
1.3793490258
1.3790786498
1.3786407732
1.3779953740
1.3770875580
1.3758486680
1.3741958186
1.3720336065
1.3692573453
1.3657521220
1.3613888575
1.3560123396
1.3494085814
1.3412446273
1.3309583837
1.3175436564
1.2991271856
1.2720578807
1.2287835647
1.1537247370
0.9838661347
1.0164078120
1.0082578357
1.0140030115
1.0274162264
1.0413608044
1.0552902407
1.0685297749
1.0805225442
1.0909029658
1.0995010630
1.1062947794
1.1113735654
1.1149059709
1.1171054877
1.1182000293
1.1184136407
1.1179535460
1.1170031784
1.1157255889
1.1142711196
1.1127897023
1.1114515587
1.1104698250
1.1101196344
1.1107461102
1.1127393973
1.1164556477
1.1220822977
1.1294802059
1.1380921535
1.1470180426
1.1552516419
1.1619518292
1.1665952225
1.1689498882
1.1669328690
1.3789110494
1.3789176324
1.3787816957
1.3784963247
1.3780353602
1.3773580627
1.3764084882
1.3751165683
1.3733971334
1.3711509977
1.3682676384
1.3646232445
1.3600763473
1.3544570918
1.3475379104
1.3389831143
1.3282631621
1.3144955383
1.2961611769
1.2705639422
1.2327507403
1.1749479937
1.0623904633
1.0542591265
1.0386745922
1.0364655952
1.0430776565
1.0531929734
1.0647186904
1.0762912430
1.0870465206
1.0964767401
1.1043331108
1.1105544306
1.1151904944
1.1183721158
1.1202811235
1.1211213346
1.1211013461
1.1204205334
1.1192598609
1.1177836008
1.1161456227
1.1145009496
1.1130266960
1.1119448746
1.1115409122
1.1121696407
1.1142255683
1.1180566368
1.1238233373
1.1313420846
1.1400079367
1.1488930837
1.1570002823
1.1635312015
1.1680195871
1.1702829662
1.1683586457
1.3783938729
1.3784093921
1.3782647603
1.3779620297
1.3774752248
1.3767638970
1.3757725189
1.3744316510
1.3726567124
1.3703487891
1.3673971695
1.3636769849
1.3590450140
1.3533305450
1.3463092914
1.3376608837
1.3269006545
1.3132567570
1.2954691380
1.2714468278
1.2376681266
1.1894969968
1.1083627076
1.0823479925
1.0620435053
1.0545554720
1.0563758384
1.0632777958
1.0726326110
1.0826800799
1.0923191150
1.1009096443
1.1081259941
1.1138550851
1.1181166348
1.1210082517
1.1226838104
1.1233254605
1.1231273054
1.1222807236
1.1209634610
1.1193399035
1.1175661546
1.1158009106
1.1142264859
1.1130716911
1.1126298278
1.1132630147
1.1153686610
1.1192876364
1.1251589328
1.1327646654
1.1414643661
1.1503111612
1.1583167608
1.1647162765
1.1690862608
1.1712804734
1.1694218298
1.3779717165
1.3779711058
1.3778170107
1.3774956210
1.3769815830
1.3762353923
1.3752028102
1.3738161117
1.3719927133
1.3696358418
1.3666370272
1.3628735239
1.3582042884
1.3524619238
1.3454286926
1.3367989294
1.3261212985
1.3126966532
1.2954223012
1.2725528590
1.2413399535
1.1985768161
1.1341231202
1.1006774298
1.0774472069
1.0666861186
1.0654960603
1.0702227948
1.0780596551
1.0870349542
1.0958948025
1.1039044055
1.1106815055
1.1160735631
1.1200782052
1.1227718262
1.1242891495
1.1247973102
1.1244802013
1.1235234544
1.1221024177
1.1203814221
1.1185180062
1.1166733106
1.1150331458
1.1138309070
1.1133651909
1.1140029392
1.1161432781
1.1201218937
1.1260628212
1.1337248824
1.1424441173
1.1512618119
1.1591966919
1.1655067477
1.1697969856
1.1719448665
1.1701281957
1.3776352816
1.3775911562
1.3774268832
1.3770855323
1.3765425697
1.3757596908
1.3746842160
1.3732503446
1.3713776789
1.3689718010
1.3659267275
1.3621222090
1.3574197862
1.3516552530
1.3446156677
1.3360040897
1.3253866819
1.3120999634
1.2951151960
1.2728444603
1.2428845285
1.2026145821
1.1454813818
1.1094864949
1.0849279995
1.0726352217
1.0700170390
1.0736735761
1.0807516474
1.0891904618
1.0976629687
1.1053859604
1.1119473501
1.1171747185
1.1210532693
1.1236496740
1.1250892360
1.1255316830
1.1251558624
1.1241445875
1.1226720717
1.1209026807