<VTKFile type="UnstructuredGrid" version="0.1">
	<UnstructuredGrid>
		<Piece NumberOfPoints="13548" NumberOfCells="3387">
			<CellData>
				<DataArray type="Int32" Name="ghost" NumberOfComponents="1" Format="ascii">
1
1
1
1
1
1
1
1
1
1
1
1
1
1
1
1
1
1
1
1
1
1
1
1
1
1
1
1
1
1
1
1
1
1
1
1
1
1
1
1
1
1
1
1
1
1
1
1
1
1
1
1
1
1
1
1
1
1
0
0
0
0
0
0
0
0
0
0
0
0
0
0
0
0
0
0
0
0
1
1
0
0
0
0
0
0
0
0
0
0
0
0
0
0
0
0
0
0
0
0
0
0
0
0
0
0
0
0
0
0
0
0
0
1
1
0
0
0
0
0
0
0
0
0
0
0
0
0
0
0
0
0
0
0
0
1
1
0
0
0
0
0
0
0
0
0
0
0
0
0
0
0
0
0
0
0
0
0
0
0
0
0
0
0
0
0
0
0
0
0
1
1
0
0
0
0
0
0
0
0
0
0
0
0
0
0
0
0
0
0
0
0
1
1
0
0
0
0
0
0
0
0
0
0
0
0
0
0
0
0
0
0
0
0
0
0
0
0
0
0
0
0
0
0
0
0
0
1
1
0
0
0
0
0
0
0
0
0
0
0
0
0
0
0
0
0
0
0
0
1
1
0
0
0
0
0
0
0
0
0
0
0
0
0
0
0
0
0
0
0
0
0
0
0
0
0
0
0
0
0
0
0
0
0
1
1
0
0
0
0
0
0
0
0
0
0
0
0
0
0
0
0
0
0
0
0
1
1
0
0
0
0
0
0
0
0
0
0
0
0
0
0
0
0
0
0
0
0
0
0
0
0
0
0
0
0
0
0
0
0
0
1
1
0
0
0
0
0
0
0
0
0
0
0
0
0
0
0
0
0
0
0
0
1
1
0
0
0
0
0
0
0
0
0
0
0
0
0
0
0
0
0
0
0
0
0
0
0
0
0
0
0
0
0
0
0
0
0
1
1
0
0
0
0
0
0
0
0
0
0
0
0
0
0
0
0
0
0
0
0
1
1
0
0
0
0
0
0
0
0
0
0
0
0
0
0
0
0
0
0
0
0
0
0
0
0
0
0
0
0
0
0
0
0
0
1
1
0
0
0
0
0
0
0
0
0
0
0
0
0
0
0
0
0
0
0
0
1
1
0
0
0
0
0
0
0
0
0
0
0
0
0
0
0
0
0
0
0
0
0
0
0
0
0
0
0
0
0
0
0
0
0
1
1
0
0
0
0
0
0
0
0
0
0
0
0
0
0
0
0
0
0
0
0
1
1
0
0
0
0
0
0
0
0
0
0
0
0
0
0
0
0
0
0
0
0
0
0
0
0
0
0
0
0
0
0
0
0
0
1
1
0
0
0
0
0
0
0
0
0
0
0
0
0
0
0
0
0
0
0
0
1
1
0
0
0
0
0
0
0
0
0
0
0
0
0
0
0
0
0
0
0
0
0
0
0
0
0
0
0
0
0
0
0
0
0
1
1
0
0
0
0
0
0
0
0
0
0
0
0
0
0
0
0
0
0
0
0
1
1
0
0
0
0
0
0
0
0
0
0
0
0
0
0
0
0
0
0
0
0
0
0
0
0
0
0
0
0
0
0
0
0
0
1
1
0
0
0
0
0
0
0
0
0
0
0
0
0
0
0
0
0
0
0
0
1
1
0
0
0
0
0
0
0
0
0
0
0
0
0
0
0
0
0
0
0
0
0
0
0
0
0
0
0
0
0
0
0
0
0
1
1
0
0
0
0
0
0
0
0
0
0
0
0
0
0
0
0
0
0
0
0
1
1
0
0
0
0
0
0
0
0
0
0
0
0
0
0
0
0
0
0
0
0
0
0
0
0
0
0
0
0
0
0
0
0
0
1
1
0
0
0
0
0
0
0
0
0
0
0
0
0
0
0
0
0
0
0
0
1
1
0
0
0
0
0
0
0
0
0
0
0
0
0
0
0
0
0
0
0
0
0
0
0
0
0
0
0
0
0
0
0
0
0
1
1
0
0
0
0
0
0
0
0
0
0
0
0
0
0
0
0
0
0
0
0
1
1
0
0
0
0
0
0
0
0
0
0
0
0
0
0
0
0
0
0
0
0
0
0
0
0
0
0
0
0
0
0
0
0
0
1
1
0
0
0
0
0
0
0
0
0
0
0
0
0
0
0
0
0
0
0
0
1
1
0
0
0
0
0
0
0
0
0
0
0
0
0
0
0
0
0
0
0
0
0
0
0
0
0
0
0
0
0
0
0
0
0
1
1
0
0
0
0
0
0
0
0
0
0
0
0
0
0
0
0
0
0
0
0
1
1
0
0
0
0
0
0
0
0
0
0
0
0
0
0
0
0
0
0
0
0
0
0
0
0
0
0
0
0
0
0
0
0
0
1
1
0
0
0
0
0
0
0
0
0
0
0
0
0
0
0
0
0
0
0
0
1
1
0
0
0
0
0
0
0
0
0
0
0
0
0
0
0
0
0
0
0
0
0
0
0
0
0
0
0
0
0
0
0
0
0
1
1
0
0
0
0
0
0
0
0
0
0
0
0
0
0
0
0
0
0
0
0
1
1
0
0
0
0
0
0
0
0
0
0
0
0
0
0
0
0
0
0
0
0
0
0
0
0
0
0
0
0
0
0
0
0
0
1
1
0
0
0
0
0
0
0
0
0
0
0
0
0
0
0
0
0
0
0
0
1
1
0
0
0
0
0
0
0
0
0
0
0
0
0
0
0
0
0
0
0
0
0
0
0
0
0
0
0
0
0
0
0
0
0
1
1
0
0
0
0
0
0
0
0
0
0
0
0
0
0
0
0
0
0
0
0
1
1
0
0
0
0
0
0
0
0
0
0
0
0
0
0
0
0
0
0
0
0
0
0
0
0
0
0
0
0
0
0
0
0
0
1
1
0
0
0
0
0
0
0
0
0
0
0
0
0
0
0
0
0
0
0
0
1
1
0
0
0
0
0
0
0
0
0
0
0
0
0
0
0
0
0
0
0
0
0
0
0
0
0
0
0
0
0
0
0
0
0
1
1
0
0
0
0
0
0
0
0
0
0
0
0
0
0
0
0
0
0
0
0
1
1
0
0
0
0
0
0
0
0
0
0
0
0
0
0
0
0
0
0
0
0
0
0
0
0
0
0
0
0
0
0
0
0
0
1
1
0
0
0
0
0
0
0
0
0
0
0
0
0
0
0
0
0
0
0
0
1
1
0
0
0
0
0
0
0
0
0
0
0
0
0
0
0
0
0
0
0
0
0
0
0
0
0
0
0
0
0
0
0
0
0
1
1
0
0
0
0
0
0
0
0
0
0
0
0
0
0
0
0
0
0
0
0
0
1
1
0
0
0
0
0
0
0
0
0
0
0
0
0
0
0
0
0
0
0
0
0
0
0
0
0
0
0
0
0
0
0
0
0
0
1
1
0
0
0
0
0
0
0
0
0
0
0
0
0
0
0
0
0
0
0
0
0
0
0
0
0
0
0
0
0
0
0
0
0
0
0
0
0
0
0
0
0
0
0
0
0
0
0
0
0
0
0
0
0
0
0
0
0
1
1
0
0
0
0
0
0
0
0
0
0
0
0
0
0
0
0
0
0
0
0
0
0
0
0
0
0
0
0
0
0
0
0
0
0
0
0
0
0
0
0
0
0
0
0
0
0
0
0
0
0
0
0
0
0
0
0
0
1
1
0
0
0
0
0
0
0
0
0
0
0
0
0
0
0
0
0
0
0
0
0
0
0
0
0
0
0
0
0
0
0
0
0
0
0
0
0
0
0
0
0
0
0
0
0
0
0
0
0
0
0
0
0
0
0
0
0
1
1
0
0
0
0
0
0
0
0
0
0
0
0
0
0
0
0
0
0
0
0
0
0
0
0
0
0
0
0
0
0
0
0
0
0
0
0
0
0
0
0
0
0
0
0
0
0
0
0
0
0
0
0
0
0
0
0
0
1
1
0
0
0
0
0
0
0
0
0
0
0
0
0
0
0
0
0
0
0
0
0
0
0
0
0
0
0
0
0
0
0
0
0
0
0
0
0
0
0
0
0
0
0
0
0
0
0
0
0
0
0
0
0
0
0
0
0
1
1
0
0
0
0
0
0
0
0
0
0
0
0
0
0
0
0
0
0
0
0
0
0
0
0
0
0
0
0
0
0
0
0
0
0
0
0
0
0
0
0
0
0
0
0
0
0
0
0
0
0
0
0
0
0
0
0
0
1
1
0
0
0
0
0
0
0
0
0
0
0
0
0
0
0
0
0
0
0
0
0
0
0
0
0
0
0
0
0
0
0
0
0
0
0
0
0
0
0
0
0
0
0
0
0
0
0
0
0
0
0
0
0
0
0
0
0
1
1
0
0
0
0
0
0
0
0
0
0
0
0
0
0
0
0
0
0
0
0
0
0
0
0
0
0
0
0
0
0
0
0
0
0
0
0
0
0
0
0
0
0
0
0
0
0
0
0
0
0
0
0
0
0
0
0
0
1
1
0
0
0
0
0
0
0
0
0
0
0
0
0
0
0
0
0
0
0
0
0
0
0
0
0
0
0
0
0
0
0
0
0
0
0
0
0
0
0
0
0
0
0
0
0
0
0
0
0
0
0
0
0
0
0
0
0
1
1
0
0
0
0
0
0
0
0
0
0
0
0
0
0
0
0
0
0
0
0
0
0
0
0
0
0
0
0
0
0
0
0
0
0
0
0
0
0
0
0
0
0
0
0
0
0
0
0
0
0
0
0
0
0
0
0
0
1
1
0
0
0
0
0
0
0
0
0
0
0
0
0
0
0
0
0
0
0
0
0
1
1
0
0
0
0
0
0
0
0
0
0
0
0
0
0
0
0
0
0
0
0
0
0
0
0
0
0
0
0
0
0
0
0
0
0
1
1
0
0
0
0
0
0
0
0
0
0
0
0
0
0
0
0
0
0
0
0
1
1
0
0
0
0
0
0
0
0
0
0
0
0
0
0
0
0
0
0
0
0
0
0
0
0
0
0
0
0
0
0
0
0
0
1
1
0
0
0
0
0
0
0
0
0
0
0
0
0
0
0
0
0
0
0
0
1
1
0
0
0
0
0
0
0
0
0
0
0
0
0
0
0
0
0
0
0
0
0
0
0
0
0
0
0
0
0
0
0
0
0
1
1
0
0
0
0
0
0
0
0
0
0
0
0
0
0
0
0
0
0
0
0
1
1
0
0
0
0
0
0
0
0
0
0
0
0
0
0
0
0
0
0
0
0
0
0
0
0
0
0
0
0
0
0
0
0
0
1
1
0
0
0
0
0
0
0
0
0
0
0
0
0
0
0
0
0
0
0
0
1
1
0
0
0
0
0
0
0
0
0
0
0
0
0
0
0
0
0
0
0
0
0
0
0
0
0
0
0
0
0
0
0
0
0
1
1
0
0
0
0
0
0
0
0
0
0
0
0
0
0
0
0
0
0
0
0
1
1
0
0
0
0
0
0
0
0
0
0
0
0
0
0
0
0
0
0
0
0
0
0
0
0
0
0
0
0
0
0
0
0
0
1
1
0
0
0
0
0
0
0
0
0
0
0
0
0
0
0
0
0
0
0
0
1
1
0
0
0
0
0
0
0
0
0
0
0
0
0
0
0
0
0
0
0
0
0
0
0
0
0
0
0
0
0
0
0
0
0
1
1
0
0
0
0
0
0
0
0
0
0
0
0
0
0
0
0
0
0
0
0
1
1
0
0
0
0
0
0
0
0
0
0
0
0
0
0
0
0
0
0
0
0
0
0
0
0
0
0
0
0
0
0
0
0
0
1
1
0
0
0
0
0
0
0
0
0
0
0
0
0
0
0
0
0
0
0
0
1
1
0
0
0
0
0
0
0
0
0
0
0
0
0
0
0
0
0
0
0
0
0
0
0
0
0
0
0
0
0
0
0
0
0
1
1
0
0
0
0
0
0
0
0
0
0
0
0
0
0
0
0
0
0
0
0
1
1
0
0
0
0
0
0
0
0
0
0
0
0
0
0
0
0
0
0
0
0
0
0
0
0
0
0
0
0
0
0
0
0
0
1
1
0
0
0
0
0
0
0
0
0
0
0
0
0
0
0
0
0
0
0
0
1
1
0
0
0
0
0
0
0
0
0
0
0
0
0
0
0
0
0
0
0
0
0
0
0
0
0
0
0
0
0
0
0
0
0
1
1
0
0
0
0
0
0
0
0
0
0
0
0
0
0
0
0
0
0
0
0
1
1
0
0
0
0
0
0
0
0
0
0
0
0
0
0
0
0
0
0
0
0
0
0
0
0
0
0
0
0
0
0
0
0
0
1
1
0
0
0
0
0
0
0
0
0
0
0
0
0
0
0
0
0
0
0
0
1
1
0
0
0
0
0
0
0
0
0
0
0
0
0
0
0
0
0
0
0
0
0
0
0
0
0
0
0
0
0
0
0
0
0
1
1
0
0
0
0
0
0
0
0
0
0
0
0
0
0
0
0
0
0
0
0
1
1
0
0
0
0
0
0
0
0
0
0
0
0
0
0
0
0
0
0
0
0
0
0
0
0
0
0
0
0
0
0
0
0
0
1
1
0
0
0
0
0
0
0
0
0
0
0
0
0
0
0
0
0
0
0
0
1
1
0
0
0
0
0
0
0
0
0
0
0
0
0
0
0
0
0
0
0
0
0
0
0
0
0
0
0
0
0
0
0
0
0
1
1
0
0
0
0
0
0
0
0
0
0
0
0
0
0
0
0
0
0
0
0
1
1
0
0
0
0
0
0
0
0
0
0
0
0
0
0
0
0
0
0
0
0
0
0
0
0
0
0
0
0
0
0
0
0
0
1
1
0
0
0
0
0
0
0
0
0
0
0
0
0
0
0
0
0
0
0
0
1
1
0
0
0
0
0
0
0
0
0
0
0
0
0
0
0
0
0
0
0
0
0
0
0
0
0
0
0
0
0
0
0
0
0
1
1
0
0
0
0
0
0
0
0
0
0
0
0
0
0
0
0
0
0
0
0
1
1
0
0
0
0
0
0
0
0
0
0
0
0
0
0
0
0
0
0
0
0
0
0
0
0
0
0
0
0
0
0
0
0
0
1
1
0
0
0
0
0
0
0
0
0
0
0
0
0
0
0
0
0
0
0
0
1
1
0
0
0
0
0
0
0
0
0
0
0
0
0
0
0
0
0
0
0
0
0
0
0
0
0
0
0
0
0
0
0
0
0
1
1
0
0
0
0
0
0
0
0
0
0
0
0
0
0
0
0
0
0
0
0
1
1
0
0
0
0
0
0
0
0
0
0
0
0
0
0
0
0
0
0
0
0
0
0
0
0
0
0
0
0
0
0
0
0
0
1
1
0
0
0
0
0
0
0
0
0
0
0
0
0
0
0
0
0
0
0
0
1
1
0
0
0
0
0
0
0
0
0
0
0
0
0
0
0
0
0
0
0
0
0
0
0
0
0
0
0
0
0
0
0
0
0
1
1
0
0
0
0
0
0
0
0
0
0
0
0
0
0
0
0
0
0
0
0
1
1
0
0
0
0
0
0
0
0
0
0
0
0
0
0
0
0
0
0
0
0
0
0
0
0
0
0
0
0
0
0
0
0
0
1
1
1
1
1
1
1
1
1
1
1
1
1
1
1
1
1
1
1
1
1
1
1
1
1
1
1
1
1
1
1
1
1
1
1
1
1
1
1
1
1
1
1
1
1
1
1
1
1
1
1
1
1
1
1
1
1
1
				</DataArray>
				<DataArray type="Float64" Name="h" NumberOfComponents="1" Format="ascii">
1.1441351771
1.1420883563
1.1418531149
1.1413799439
1.1406644850
1.1397028543
1.1384943553
1.1370442364
1.1353662917
1.1334848425
1.1314355766
1.1292652815
1.1270306655
1.1247960936
1.1226306302
1.1206050394
1.1187885626
1.1172456686
1.1160331749
1.1151973106
1.1147708424
1.1147708424
1.2856033617
1.2869260458
1.2866768041
1.2861125684
1.2851091246
1.2835015052
1.2811101160
1.2777752067
1.2734000065
1.2679930814
1.2616956824
1.2547824434
1.2476258070
1.2406292521
1.2341536728
1.2284604926
1.2236866437
1.2198531205
1.2168943046
1.2146935115
1.2131137539
1.2120196794
1.2112908728
1.2108268122
1.2105476955
1.2103933778
1.2103196361
1.2102949037
1.2102979500
1.2103144883
1.2103350903
1.2103542839
1.2103686713
1.2103761611
1.2103761611
1.1420883563
1.1400390714
1.1397857585
1.1392772550
1.1385107407
1.1374844053
1.1361999442
1.1346651001
1.1328960576
1.1309193178
1.1287725166
1.1265041969
1.1241727549
1.1218442969
1.1195897685
1.1174820027
1.1155924365
1.1139877466
1.1127268191
1.1118576127
1.1114141437
1.1147708424
1.2869260458
1.2882103263
1.2880113105
1.2875511615
1.2867112992
1.2853311460
1.2832296967
1.2802350530
1.2762237516
1.2711628863
1.2651430806
1.2583905748
1.2512456157
1.2441061137
1.2373555833
1.2312984381
1.2261219501
1.2218927977
1.2185792634
1.2160848782
1.2142809831
1.2130318998
1.2122113803
1.2117100790
1.2114380678
1.2113247925
1.2113159455
1.2113705227
1.2114586878
1.2115585146
1.2116539960
1.2117342424
1.2117916941
1.2118214312
1.2103761611
1.1422319825
1.1402025570
1.1399465731
1.1394329545
1.1386593131
1.1376244292
1.1363306879
1.1347865513
1.1330088788
1.1310247353
1.1288721544
1.1265998742
1.1242662723
1.1219372394
1.1196833512
1.1175769839
1.1156891125
1.1140860280
1.1128263667
1.1119579865
1.1115149117
1.1148530770
1.2869629621
1.2882243601
1.2880155175
1.2875359948
1.2866679780
1.2852525024
1.2831113610
1.2800768057
1.2760307445
1.2709462446
1.2649193749
1.2581799277
1.2510687411
1.2439812003
1.2372961087
1.2313125734
1.2262134652
1.2220627575
1.2188277143
1.2164120242
1.2146876976
1.2135196868
1.2127820025
1.2123650384
1.2121780646
1.2121492521
1.2122226488
1.2123553480
1.2125154831
1.2126790952
1.2128282563
1.2129503864
1.2130365636
1.2130809092
1.2116537114
1.1425107257
1.1405203912
1.1402592846
1.1397358638
1.1389485838
1.1378973773
1.1365859726
1.1350242301
1.1332303163
1.1312323809
1.1290692137
1.1267899090
1.1244527803
1.1221232686
1.1198712001
1.1177680367
1.1158838364
1.1142841343
1.1130270913
1.1121603936
1.1117181121
1.1150192243
1.2870188780
1.2882364581
1.2880083146
1.2874907709
1.2865675853
1.2850830715
1.2828646625
1.2797529131
1.2756403927
1.2705119134
1.2644741094
1.2577634837
1.2507217063
1.2437389154
1.2371844962
1.2313470980
1.2264009935
1.2224049039
1.2193241283
1.2170626641
1.2154938128
1.2144837374
1.2139069408
1.2136533121
1.2136305853
1.2137644999
1.2139959816
1.2142785259
1.2145764441
1.2148619669
1.2151135797
1.2153155579
1.2154564527
1.2155286112
1.2141438015
1.1429083288
1.1409750817
1.1407068414
1.1401697909
1.1393635986
1.1382898523
1.1369542054
1.1353685144
1.1335528001
1.1315367335
1.1293601408
1.1270725653
1.1247321580
1.1224036388
1.1201556853
1.1180583841
1.1161804336
1.1145862705
1.1133333989
1.1124693205
1.1120282515
1.1152738291
1.2870598860
1.2882164793
1.2879601975
1.2873873063
1.2863840323
1.2847997456
1.2824704571
1.2792491871
1.2750442977
1.2698577201
1.2638111373
1.2571501651
1.2502168814
1.2433930956
1.2370340872
1.2314131981
1.2266922892
1.2229225745
1.2200665681
1.2180287112
1.2166841264
1.2159006733
1.2155535380
1.2155319006
1.2157413593
1.2161042992
1.2165573684
1.2170491704
1.2175388591
1.2179935634
1.2183869998
1.2186992914
1.2189156705
1.2190261634
1.2177187289
1.1433999066
1.1415399785
1.1412632489
1.1407100209
1.1398814848
1.1387812998
1.1374175189
1.1358044722
1.1339644546
1.1319289698
1.1297390440
1.1274446631
1.1251036379
1.1227796429
1.1205397786
1.1184522885
1.1165840842
1.1149981992
1.1137513622
1.1128909637
1.1124515567
1.1156231724
1.2870382656
1.2881220396
1.2878296694
1.2871859519
1.2860806169
1.2843700436
1.2819019008
1.2785458468
1.2742309230
1.2689809603
1.2629362495
1.2563528470
1.2495719037
1.2429633487
1.2368637272
1.2315266533
1.2270982855
1.2236204627
1.2210522562
1.2192986582
1.2182370229
1.2177372765
1.2176754397
1.2179398543
1.2184335912
1.2190750967
1.2197960454
1.2205394124
1.2212584869
1.2219146652
1.2224763641
1.2229191408
1.2232246110
1.2233802874
1.2221969539
1.1439520758
1.1421794958
1.1418937827
1.1413235106
1.1404716204
1.1393441456
1.1379518725
1.1363119239
1.1344491222
1.1323969510
1.1301976489
1.1279015088
1.1255657238
1.1232525288
1.1210269802
1.1189549995
1.1171012970
1.1155272400
1.1142887388
1.1134332583
1.1129960061
1.1160753163
1.2868957704
1.2879014551
1.2875660994
1.2868382890
1.2856124885
1.2837542785
1.2811262565
1.2776188928
1.2731864529
1.2678786613
1.2618567942
1.2553873577
1.2488081695
1.2424732248
1.2366958288
1.2317059810
1.2276314585
1.2245032945
1.2222766354
1.2208571024
1.2201245683
1.2199512949
1.2202142832
1.2208010415
1.2216120074
1.2225615372
1.2235761949
1.2245932502
1.2255601442
1.2264326523
1.2271740792
1.2277556495
1.2281555934
1.2283590929
1.2273555821
1.1445241867
1.1428504751
1.1425563322
1.1419701951
1.1410968886
1.1399449852
1.1385281697
1.1368664841
1.1349873314
1.1329261247
1.1307261468
1.1284377095
1.1261169919
1.1238243135
1.1216221705
1.1195736613
1.1177408840
1.1161833096
1.1149560648
1.1141070044
1.1136724705
1.1166412711
1.2865678747
1.2874975819
1.2871134224
1.2862905596
1.2849296973
1.2829081341
1.2801069110
1.2764414732
1.2718954112
1.2665473678
1.2605805904
1.2542705653
1.2479482467
1.2419471821
1.2365531407
1.2319692251
1.2283027994
1.2255731046
1.2237310603
1.2226829798
1.2223114576
1.2224913138
1.2231007460
1.2240266468
1.2251670803
1.2264326603
1.2277453094
1.2290371946
1.2302506384
1.2313366135
1.2322541608
1.2329709811
1.2334626107
1.2337124054
1.2329474750
1.1450686488
1.1435026824
1.1432018575
1.1426033677
1.1417139449
1.1405447118
1.1391122234
1.1374393516
1.1355559059
1.1334989572
1.1313124641
1.1290463006
1.1267551057
1.1244967165
1.1223304935
1.1203161758
1.1185128229
1.1169777921
1.1157655283
1.1149247360
1.1144935748
1.1173338691
1.2859863277
1.2868499226
1.2864121794
1.2854855815
1.2839789332
1.2817841745
1.2788045896
1.2749847140
1.2703409950
1.2649828686
1.2591149890
1.2530188094
1.2470138137
1.2414082417
1.2364563384
1.2323316743
1.2291198084
1.2268276331
1.2254017289
1.2247492010
1.2247555672
1.2252984892
1.2262577515
1.2275201553
1.2289820758
1.2305512532
1.2321460155
1.2336946320
1.2351356258
1.2364165315
1.2374934543
1.2383317761
1.2389053318
1.2391963577
1.2387241109
1.1455328190
1.1440808486
1.1437763766
1.1431715599
1.1422749452
1.1411000500
1.1396660662
1.1379983754
1.1361287799
1.1340955052
1.1319426097
1.1297189009
1.1274768204
1.1252710599
1.1231572017
1.1211910344
1.1194281050
1.1179234164
1.1167308706
1.1159006293
1.1154736015
1.1181677184
1.2850814698
1.2858965123
1.2854013202
1.2843643949
1.2827049556
1.2803329975
1.2771781571
1.2732180606
1.2685048280
1.2631792474
1.2574651686
1.2516454919
1.2460226991
1.2408746865
1.2364206009
1.2328025070
1.2300833734
1.2282575938
1.2272675156
1.2270212558
1.2274075767
1.2283074542
1.2296029361
1.2311816328
1.2329393597
1.2347823255
1.2366267798
1.2383987313
1.2400345964
1.2414801355
1.2426900714
1.2436288269
1.2442696250
1.2445943444
1.2444568707
1.1458623119
1.1445281382
1.1442243622
1.1436218008
1.1427306043
1.1415663618
1.1401504632
1.1385102494
1.1366788674
1.1346949703
1.1326019437
1.1304467410
1.1282788265
1.1261489943
1.1241083287
1.1222079973
1.1204994694
1.1190350643
1.1178682598
1.1170514114
1.1166294079
1.1191601761
1.2837847498
1.2845760550
1.2840202119
1.2828680333
1.2810520386
1.2785042750
1.2751851607
1.2711092124
1.2663661690
1.2611272821
1.2556317308
1.2501579829
1.2449852975
1.2403562260
1.2364517523
1.2333811109
1.2311844489
1.2298438988
1.2292979428
1.2294561493
1.2302110934
1.2314478421
1.2330517451
1.2349125166
1.2369269321
1.2390013648
1.2410517870
1.2430037879
1.2447934810
1.2463665455
1.2476778399
1.2486921095
1.2493829645
1.2497326113
1.2499547469
1.1460039223
1.1447891788
1.1444916843
1.1439023852
1.1430327112
1.1418998398
1.1405267254
1.1389419079
1.1371790188
1.1352762181
1.1332752818
1.1312203922
1.1291571609
1.1271316552
1.1251896643
1.1233769586
1.1217402145
1.1203285670
1.1191950776
1.1183951208
1.1179791538
1.1203301107
1.2820282746
1.2828271250
1.2822078337
1.2809367133
1.2789631581
1.2762459188
1.2727809165
1.2686230289
1.2639005272
1.2588127063
1.2536086353
1.2485553569
1.2439022986
1.2398519169
1.2365445512
1.2340558962
1.2324035432
1.2315579707
1.2314544727
1.2320048192
1.2331063066
1.2346492396
1.2365236791
1.2386230728
1.2408469461
1.2431037086
1.2453109281
1.2473955813
1.2492951576
1.2509567521
1.2523366429
1.2534009380
1.2541244200
1.2544901488
1.2550773701
1.1459098418
1.1448143035
1.1445297591
1.1439668415
1.1431378311
1.1420608679
1.1407596699
1.1392630391
1.1376040659
1.1358193525
1.1339480169
1.1320304763
1.1301075603
1.1282197326
1.1264066199
1.1247076898
1.1231638978
1.1218204111
1.1207296399
1.1199508150
1.1195419750
1.1216976391
1.2797448442
1.2805879164
1.2799025098
1.2785095486
1.2763796857
1.2735037244
1.2699180285
1.2657208175
1.2610786281
1.2562148323
1.2513815691
1.2468266868
1.2427631174
1.2393489250
1.2366819438
1.2348041733
1.2337113382
1.2333632142
1.2336929150
1.2346155137
1.2360343050
1.2378463326
1.2399480765
1.2422385612
1.2446219564
1.2470105680
1.2493253093
1.2514961364
1.2534633058
1.2551765008
1.2565943718
1.2576851216
1.2584252329
1.2587989627
1.2597383962
1.1455424051
1.1445642918
1.1443002031
1.1437784126
1.1430115345
1.1420179290
1.1408211476
1.1394491935
1.1379334867
1.1363079345
1.1346079109
1.1328690649
1.1311265220
1.1294142629
1.1277648363
1.1262103611
1.1247848641
1.1235283436
1.1224918926
1.1217393032
1.1213386936
1.1232848789
1.2768697914
1.2777978480
1.2770434506
1.2755259871
1.2732426879
1.2702224738
1.2665472011
1.2623607602
1.2578664134
1.2533061972
1.2489274270
1.2449506109
1.2415457911
1.2388229373
1.2368361143
1.2355939236
1.2350712385
1.2352183663
1.2359675499
1.2372385904
1.2389423730
1.2409844442
1.2432695824
1.2457042907
1.2481992236
1.2506722784
1.2530492138
1.2552642470
1.2572614460
1.2589939037
1.2604232649
1.2615202673
1.2622633906
1.2626382721
1.2639020601
1.1448776820
1.1440138877
1.1437782716
1.1433133388
1.1426314536
1.1417503707
1.1406924653
1.1394838201
1.1381530270
1.1367301727
1.1352458489
1.1337300085
1.1322112315
1.1307161954
1.1292694503
1.1278945901
1.1266171776
1.1254702773
1.1245023256
1.1237820255
1.1233906119
1.1251147283
1.2733410733
1.2743973935
1.2735706781
1.2719259491
1.2694933666
1.2663466956
1.2626182714
1.2584991604
1.2542265093
1.2500543655
1.2462166438
1.2428983936
1.2402208938
1.2382429595
1.2369741204
1.2363901835
1.2364463867
1.2370849966
1.2382389227
1.2398343592
1.2417915833
1.2440265471
1.2464542407
1.2489904783
1.2515540758
1.2540699764
1.2564699953
1.2586935791
1.2606893365
1.2624142939
1.2638334498
1.2649202968
1.2656554390
1.2660259643
1.2675759353
1.1439088251
1.1431550561
1.1429560552
1.1425639369
1.1419901911
1.1412511009
1.1403668305
1.1393604308
1.1382565623
1.1370804651
1.1358570502
1.1346098093
1.1333601015
1.1321266188
1.1309250548
1.1297692152
1.1286743193
1.1276640327
1.1267818158
1.1261009265
1.1257192967
1.1272106425
1.2691036201
1.2703321346
1.2694291412
1.2676541214
1.2650776193
1.2618254915
1.2580852403
1.2540956310
1.2501236158
1.2464276639
1.2432194539
1.2406408259
1.2387590715
1.2375793593
1.2370662465
1.2371634886
1.2378079767
1.2389354633
1.2404812040
1.2423795913
1.2445621974
1.2469573088
1.2494919738
1.2520930069
1.2546888599
1.2572127326
1.2596034508
1.2618064094
1.2637752504
1.2654712525
1.2668629566
1.2679266923
1.2686452160
1.2690070714
1.2707995919
1.1426481375
1.1419990222
1.1418444867
1.1415405468
1.1410971850
1.1405283532
1.1398510085
1.1390841420
1.1382475155
1.1373606827
1.1364422018
1.1355085899
1.1345735643
1.1336473775
1.1327361669
1.1318426890
1.1309696350
1.1301279973
1.1293525932
1.1287196187
1.1283476913
1.1295976858
1.2641191894
1.2655622758
1.2645781887
1.2626694804
1.2599556852
1.2566222871
1.2529160662
1.2491229223
1.2455344576
1.2424054111
1.2399165119
1.2381592050
1.2371421809
1.2368148549
1.2370965020
1.2378995710
1.2391438938
1.2407602898
1.2426881337
1.2448718981
1.2472563766
1.2497840754
1.2523958303
1.2550309801
1.2576288960
1.2601320415
1.2624870159
1.2646457093
1.2665671412
1.2682170423
1.2695675935
1.2705979740
1.2712930735
1.2716428691
1.2736331275
1.1411270018
1.1405761929
1.1404732545
1.1402714309
1.1399785943
1.1396055653
1.1391652008
1.1386715593
1.1381387455
1.1375800476
1.1370073000
1.1364298591
1.1358537162
1.1352805555
1.1347065334
1.1341222344
1.1335154504
1.1328803909
1.1322378179
1.1316631809
1.1312997807
1.1323020592
1.2583764979
1.2600723423
1.2590012765
1.2569553098
1.2541127421
1.2507261362
1.2471047417
1.2435798523
1.2404616766
1.2379928092
1.2363146286
1.2354615203
1.2353793528
1.2359598269
1.2370766224
1.2386116268
1.2404689700
1.2425762589
1.2448789087
1.2473334403
1.2498998066
1.2525365541
1.2551999046
1.2578430878
1.2604175143
1.2628757596
1.2651728234
1.2672675287
1.2691245290
1.2707141439
1.2720122486
1.2730008549
1.2736669489
1.2740019091
1.2761472718
1.1393945457
1.1389348801
1.1388895358
1.1388015311
1.1386760983
1.1385202443
1.1383420009
1.1381498433
1.1379517354
1.1377544421
1.1375630639
1.1373799987
1.1372038364
1.1370279835
1.1368385963
1.1366132871
1.1363226055
1.1359391381
1.1354620636
1.1349591734
1.1346015182
1.1353519029
1.2519073926
1.2538868744
1.2527213626
1.2505346476
1.2475747477
1.2441681522
1.2406884561
1.2375093341
1.2349527705
1.2332406111
1.2324666652
1.2326018028
1.2335249266
1.2350680696
1.2370590963
1.2393503390
1.2418319614
1.2444304739
1.2470995705
1.2498099538
1.2525387012
1.2552621418
1.2579533306
1.2605805809
1.2631082960
1.2654998591
1.2677191755
1.2697323456
1.2715098418
1.2730266612
1.2742623950
1.2752018491
1.2758340559
1.2761517572
1.2784140189
1.1375144234
1.1371381960
1.1371549227
1.1371894585
1.1372439864
1.1373211947
1.1374237986
1.1375543259
1.1377144489
1.1379045246
1.1381233180
1.1383669119
1.1386272915
1.1388903832
1.1391328675
1.1393191240
1.1394004638
1.1393225758
1.1390531690
1.1386406310
1.1382838936
1.1387802140
1.2448039712
1.2470871875
1.2458169341
1.2434861950
1.2404247718
1.2370386058
1.2337657356
1.2310177279
1.2291205448
1.2282661277
1.2284921275
1.2296991333
1.2316947971
1.2342497253
1.2371463511
1.2402093571
1.2433176240
1.2463994915
1.2494197158
1.2523655602
1.2552332023
1.2580183490
1.2607121009
1.2632987949
1.2657565443
1.2680600315
1.2701824071
1.2720972661
1.2737809865
1.2752132580
1.2763773574
1.2772608062
1.2778546079
1.2781528124
1.2804994391
1.1355601942
1.1352595123
1.1353409044
1.1355030219
1.1357447542
1.1360642032
1.1364585731
1.1369244301
1.1374573943
1.1380519592
1.1387014198
1.1393966893
1.1401244904
1.1408646668
1.1415856215
1.1422390009
1.1427556144
1.1430490648
1.1430433996
1.1427489999
1.1423860506
1.1426277436
1.2372224505
1.2398151697
1.2384249322
1.2359480268
1.2328086351
1.2294951917
1.2265078038
1.2242893753
1.2231602780
1.2232717916
1.2245954458
1.2269539445
1.2300794485
1.2336803761
1.2374958232
1.2413266930
1.2450450253
1.2485852107
1.2519266039
1.2550756600
1.2580495321
1.2608645923
1.2635307939
1.2660490301
1.2684114731
1.2706042812
1.2726099379
1.2744095486
1.2759853263
1.2773215468
1.2784050483
1.2792259208
1.2797770138
1.2800535984
1.2824581725
1.1336104292
1.1333776083
1.1335240013
1.1338143276
1.1342441398
1.1348069679
1.1354946610
1.1362982163
1.1372078997
1.1382133958
1.1393039694
1.1404671542
1.1416864729
1.1429378901
1.1441836299
1.1453641396
1.1463896206
1.1471371750
1.1474731153
1.1473418519
1.1469642972
1.1469517322
1.2293631540
1.2322538805
1.2307217288
1.2281030373
1.2249265011
1.2217611791
1.2191630091
1.2175962288
1.2173626025
1.2185587329
1.2210776598
1.2246558345
1.2289468935
1.2335990787
1.2383137618
1.2428753165
1.2471560044
1.2511021520
1.2547120090
1.2580139094
1.2610474728
1.2638504143
1.2664516721
1.2688685880
1.2711071856
1.2731648148
1.2750330084
1.2767001044
1.2781538496
1.2793828208
1.2803771550
1.2811292606
1.2816336345
1.2818866338
1.2843286770
1.1317436575
1.1315715740
1.1317806214
1.1321945218
1.1328056448
1.1336032378
1.1345742887
1.1357050209
1.1369815172
1.1383902855
1.1399187351
1.1415537551
1.1432789384
1.1450700812
1.1468871235
1.1486629051
1.1502891785
1.1516041147
1.1524011313
1.1525175575
1.1521257737
1.1518587756
1.2213732767
1.2245327349
1.2228434204
1.2201236430
1.2170008682
1.2141121928
1.2120569355
1.2113054670
1.2121229460
1.2145332409
1.2183366831
1.2231763582
1.2286284668
1.2342887903
1.2398323711
1.2450389949
1.2497912840
1.2540549155
1.2578516480
1.2612338978
1.2642643381
1.2670016540
1.2694928755
1.2717707814
1.2738542823
1.2757510300
1.2774608453
1.2789786471
1.2802971283
1.2814086591
1.2823062421
1.2829842310
1.2834384830
1.2836662488
1.2861306365
1.1300353697
1.1299176815
1.1301839147
1.1307105660
1.1314870777
1.1324988257
1.1337285542
1.1351586300
1.1367722671
1.1385546642
1.1404940265
1.1425802685
1.1448020429
1.1471416389
1.1495652800
1.1520086941
1.1543568196
1.1564179137
1.1579061746
1.1584977052
1.1582011264
1.1576745491
1.2129544412
1.2163439598
1.2146644542
1.2120831401
1.2092690367
1.2069094849
1.2056388059
1.2059209772
1.2079675048
1.2117127587
1.2168537249
1.2229396241
1.2294789627
1.2360314961
1.2422644385
1.2479695678
1.2530522051
1.2575051264
1.2613773619
1.2647461720
1.2676962531
1.2703053397
1.2726363194
1.2747352889
1.2766322023
1.2783434466
1.2798758509
1.2812298665
1.2824022479
1.2833884275
1.2841836713
1.2847837862
1.2851856194
1.2853870676
1.2878632280
1.1285584899
1.1284896719
1.1288043400
1.1294263256
1.1303423104
1.1315340048
1.1329801233
1.1346593976
1.1365523888
1.1386432574
1.1409215256
1.1433812189
1.1460183998
1.1488269492
1.1517899627
1.1548675402
1.1579802994
1.1609866646
1.1636605027
1.1657171603
1.1671924242
1.1663905470
1.2012092881
1.2048327664
1.2055050076
1.2042765991
1.2024198804
1.2009785036
1.2007524472
1.2022445717
1.2056204817
1.2107212569
1.2171398871
1.2243410285
1.2317842939
1.2390166730
1.2457198205
1.2517149247
1.2569410703
1.2614234634
1.2652393846
1.2684890557
1.2712758850
1.2736928890
1.2758151543
1.2776989011
1.2793824812
1.2808888698
1.2822301980
1.2834110864
1.2844312462
1.2852882784
1.2859789940
1.2865000851
1.2868489669
1.2870239019
1.2895049214
1.1273859642
1.1273611396
1.1277129645
1.1284077816
1.1294295736
1.1307563241
1.1323623484
1.1342218092
1.1363106782
1.1386084621
1.1410995941
1.1437709364
1.1466061143
1.1495755179
1.1526163881
1.1556003528
1.1582804359
1.1601981114
1.1605223865
1.1577874393
1.1496332804
1.1332279189
1.1231924572
1.1579960760
1.2267491711
1.2152885947
1.2093194995
1.2046700411
1.2011995361
1.1992775321
1.1993166014
1.2015518257
1.2059294420
1.2121015400
1.2195113668
1.2275267925
1.2355661465
1.2431791542
1.2500770802
1.2561210169
1.2612885301
1.2656372179
1.2692693856
1.2723032775
1.2748555801
1.2770294026
1.2789074673
1.2805523415
1.2820077548
1.2833008985
1.2844473553
1.2854544616
1.2863237360
1.2870540339
1.2876429838
1.2880876033
1.2883854628
1.2885349158
1.2910166461
1.1265921999
1.1266068464
1.1269837788
1.1277275755
1.1288199842
1.1302358784
1.1319458878
1.1339204135
1.1361318256
1.1385564738
1.1411765055
1.1439773360
1.1469420612
1.1500422460
1.1532196216
1.1563594210
1.1592540818
1.1615505840
1.1626860480
1.1618409002
1.1580485775
1.1505668766
1.1267286335
1.1608439291
1.1995319064
1.2018856318
1.2014465691
1.1997594389
1.1981408907
1.1976214436
1.1989188100
1.2023688198
1.2078993049
1.2150906113
1.2233136331
1.2318971624
1.2402626888
1.2479946265
1.2548538506
1.2607511328
1.2657047184
1.2698020455
1.2731654340
1.2759252923
1.2782058707
1.2801153021
1.2817397231
1.2831446628
1.2843765759
1.2854648305
1.2864268844
1.2872715597
1.2880012283
1.2886152449
1.2891114584
1.2894867628
1.2897385532
1.2898650521
1.2923452804
1.1262461519
1.1262957417
1.1266860724
1.1274558813
1.1285855534
1.1300481096
1.1318121099
1.1338461813
1.1361215674
1.1386147065
1.1413099895
1.1441980247
1.1472713017
1.1505171157
1.1539018349
1.1573489163
1.1607116208
1.1637353198
1.1660174883
1.1669820705
1.1658938367
1.1616224912
1.1471471366
1.1661690217
1.1913134129
1.1964784791
1.1975821587
1.1971864533
1.1967773578
1.1974351676
1.1998842189
1.2044277902
1.2109309898
1.2189056478
1.2276758970
1.2365623231
1.2450148372
1.2526675483
1.2593359971
1.2649785702
1.2696482354
1.2734548796
1.2765335752
1.2790205877
1.2810425851
1.2827086944
1.2841054262
1.2852989759
1.2863367899
1.2872491338
1.2880543634
1.2887620283
1.2893747867
1.2898920449
1.2903115182
1.2906297236
1.2908436927
1.2909513879
1.2934290642
1.1263999656
1.1264795577
1.1268721141
1.1276461345
1.1287816805
1.1302514000
1.1320236260
1.1340673201
1.1363549329
1.1388655418
1.1415885498
1.1445227948
1.1476733929
1.1510462706
1.1546335748
1.1583928331
1.1622209287
1.1659164241
1.1691373510
1.1713603854
1.1718211775
1.1691638735
1.1594970469
1.1700251237
1.1869408379
1.1932736952
1.1956405345
1.1963532880
1.1969443938
1.1985302564
1.2018328583
1.2071234719
1.2142226776
1.2226066298
1.2315888850
1.2405091032
1.2488575308
1.2563154415
1.2627411640
1.2681252169
1.2725403769
1.2761065869
1.2789623829
1.2812435357
1.2830749997
1.2845643153
1.2857968493
1.2868385272
1.2877371797
1.2885236060
1.2892168037
1.2898268595
1.2903566133
1.2908054456
1.2911708763
1.2914490266
1.2916365476
1.2917311226
1.2942056097
1.1270823848
1.1271862572
1.1275702502
1.1283274479
1.1294386030
1.1308774001
1.1326136190
1.1346183004
1.1368667594
1.1393420978
1.1420395890
1.1449664266
1.1481394437
1.1515806975
1.1553032676
1.1592901769
1.1634671675
1.1676618108
1.1715565952
1.1746407485
1.1761364281
1.1747164205
1.1678813214
1.1736115715
1.1854086417
1.1919738527
1.1952518946
1.1968516722
1.1981882198
1.2003705850
1.2041178201
1.2096928578
1.2169142726
1.2252736154
1.2341182299
1.2428318379
1.2509472527
1.2581778053
1.2644008329
1.2696142615
1.2738897557
1.2773417436
1.2801018706
1.2822993831
1.2840544231
1.2854716490
1.2866350484
1.2876104565
1.2884463964
1.2891745815
1.2898149860
1.2903785188
1.2908684942
1.2912845141
1.2916241057
1.2918831887
1.2920581759
1.2921465575
1.2946168769
1.1282968424
1.1284181960
1.1287831883
1.1295031882
1.1305605480
1.1319312208
1.1335878274
1.1355047985
1.1376613326
1.1400450223
1.1426565788
1.1455099649
1.1486307201
1.1520522958
1.1558022376
1.1598810473
1.1642341148
1.1687086251
1.1730038151
1.1766205351
1.1787895164
1.1782496752
1.1730515664
1.1768399941
1.1863341549
1.1928877613
1.1966104590
1.1986388836
1.2002620416
1.2025548736
1.2062269367
1.2115520208
1.2183866108
1.2262846942
1.2346650995
1.2429724740
1.2507767550
1.2578021671
1.2639169833
1.2690990134
1.2733963029
1.2769015157