<VTKFile type="UnstructuredGrid" version="0.1">
	<UnstructuredGrid>
		<Piece NumberOfPoints="13548" NumberOfCells="3387">
			<CellData>
				<DataArray type="Int32" Name="ghost" NumberOfComponents="1" Format="ascii">
1
1
1
1
1
1
1
1
1
1
1
1
1
1
1
1
1
1
1
1
1
1
1
1
1
1
1
1
1
1
1
1
1
1
1
1
1
1
1
1
1
1
1
1
1
1
1
1
1
1
1
1
1
1
1
1
1
1
0
0
0
0
0
0
0
0
0
0
0
0
0
0
0
0
0
0
0
0
1
1
0
0
0
0
0
0
0
0
0
0
0
0
0
0
0
0
0
0
0
0
0
0
0
0
0
0
0
0
0
0
0
0
0
1
1
0
0
0
0
0
0
0
0
0
0
0
0
0
0
0
0
0
0
0
0
1
1
0
0
0
0
0
0
0
0
0
0
0
0
0
0
0
0
0
0
0
0
0
0
0
0
0
0
0
0
0
0
0
0
0
1
1
0
0
0
0
0
0
0
0
0
0
0
0
0
0
0
0
0
0
0
0
1
1
0
0
0
0
0
0
0
0
0
0
0
0
0
0
0
0
0
0
0
0
0
0
0
0
0
0
0
0
0
0
0
0
0
1
1
0
0
0
0
0
0
0
0
0
0
0
0
0
0
0
0
0
0
0
0
1
1
0
0
0
0
0
0
0
0
0
0
0
0
0
0
0
0
0
0
0
0
0
0
0
0
0
0
0
0
0
0
0
0
0
1
1
0
0
0
0
0
0
0
0
0
0
0
0
0
0
0
0
0
0
0
0
1
1
0
0
0
0
0
0
0
0
0
0
0
0
0
0
0
0
0
0
0
0
0
0
0
0
0
0
0
0
0
0
0
0
0
1
1
0
0
0
0
0
0
0
0
0
0
0
0
0
0
0
0
0
0
0
0
1
1
0
0
0
0
0
0
0
0
0
0
0
0
0
0
0
0
0
0
0
0
0
0
0
0
0
0
0
0
0
0
0
0
0
1
1
0
0
0
0
0
0
0
0
0
0
0
0
0
0
0
0
0
0
0
0
1
1
0
0
0
0
0
0
0
0
0
0
0
0
0
0
0
0
0
0
0
0
0
0
0
0
0
0
0
0
0
0
0
0
0
1
1
0
0
0
0
0
0
0
0
0
0
0
0
0
0
0
0
0
0
0
0
1
1
0
0
0
0
0
0
0
0
0
0
0
0
0
0
0
0
0
0
0
0
0
0
0
0
0
0
0
0
0
0
0
0
0
1
1
0
0
0
0
0
0
0
0
0
0
0
0
0
0
0
0
0
0
0
0
1
1
0
0
0
0
0
0
0
0
0
0
0
0
0
0
0
0
0
0
0
0
0
0
0
0
0
0
0
0
0
0
0
0
0
1
1
0
0
0
0
0
0
0
0
0
0
0
0
0
0
0
0
0
0
0
0
1
1
0
0
0
0
0
0
0
0
0
0
0
0
0
0
0
0
0
0
0
0
0
0
0
0
0
0
0
0
0
0
0
0
0
1
1
0
0
0
0
0
0
0
0
0
0
0
0
0
0
0
0
0
0
0
0
1
1
0
0
0
0
0
0
0
0
0
0
0
0
0
0
0
0
0
0
0
0
0
0
0
0
0
0
0
0
0
0
0
0
0
1
1
0
0
0
0
0
0
0
0
0
0
0
0
0
0
0
0
0
0
0
0
1
1
0
0
0
0
0
0
0
0
0
0
0
0
0
0
0
0
0
0
0
0
0
0
0
0
0
0
0
0
0
0
0
0
0
1
1
0
0
0
0
0
0
0
0
0
0
0
0
0
0
0
0
0
0
0
0
1
1
0
0
0
0
0
0
0
0
0
0
0
0
0
0
0
0
0
0
0
0
0
0
0
0
0
0
0
0
0
0
0
0
0
1
1
0
0
0
0
0
0
0
0
0
0
0
0
0
0
0
0
0
0
0
0
1
1
0
0
0
0
0
0
0
0
0
0
0
0
0
0
0
0
0
0
0
0
0
0
0
0
0
0
0
0
0
0
0
0
0
1
1
0
0
0
0
0
0
0
0
0
0
0
0
0
0
0
0
0
0
0
0
1
1
0
0
0
0
0
0
0
0
0
0
0
0
0
0
0
0
0
0
0
0
0
0
0
0
0
0
0
0
0
0
0
0
0
1
1
0
0
0
0
0
0
0
0
0
0
0
0
0
0
0
0
0
0
0
0
1
1
0
0
0
0
0
0
0
0
0
0
0
0
0
0
0
0
0
0
0
0
0
0
0
0
0
0
0
0
0
0
0
0
0
1
1
0
0
0
0
0
0
0
0
0
0
0
0
0
0
0
0
0
0
0
0
1
1
0
0
0
0
0
0
0
0
0
0
0
0
0
0
0
0
0
0
0
0
0
0
0
0
0
0
0
0
0
0
0
0
0
1
1
0
0
0
0
0
0
0
0
0
0
0
0
0
0
0
0
0
0
0
0
1
1
0
0
0
0
0
0
0
0
0
0
0
0
0
0
0
0
0
0
0
0
0
0
0
0
0
0
0
0
0
0
0
0
0
1
1
0
0
0
0
0
0
0
0
0
0
0
0
0
0
0
0
0
0
0
0
1
1
0
0
0
0
0
0
0
0
0
0
0
0
0
0
0
0
0
0
0
0
0
0
0
0
0
0
0
0
0
0
0
0
0
1
1
0
0
0
0
0
0
0
0
0
0
0
0
0
0
0
0
0
0
0
0
1
1
0
0
0
0
0
0
0
0
0
0
0
0
0
0
0
0
0
0
0
0
0
0
0
0
0
0
0
0
0
0
0
0
0
1
1
0
0
0
0
0
0
0
0
0
0
0
0
0
0
0
0
0
0
0
0
1
1
0
0
0
0
0
0
0
0
0
0
0
0
0
0
0
0
0
0
0
0
0
0
0
0
0
0
0
0
0
0
0
0
0
1
1
0
0
0
0
0
0
0
0
0
0
0
0
0
0
0
0
0
0
0
0
1
1
0
0
0
0
0
0
0
0
0
0
0
0
0
0
0
0
0
0
0
0
0
0
0
0
0
0
0
0
0
0
0
0
0
1
1
0
0
0
0
0
0
0
0
0
0
0
0
0
0
0
0
0
0
0
0
1
1
0
0
0
0
0
0
0
0
0
0
0
0
0
0
0
0
0
0
0
0
0
0
0
0
0
0
0
0
0
0
0
0
0
1
1
0
0
0
0
0
0
0
0
0
0
0
0
0
0
0
0
0
0
0
0
1
1
0
0
0
0
0
0
0
0
0
0
0
0
0
0
0
0
0
0
0
0
0
0
0
0
0
0
0
0
0
0
0
0
0
1
1
0
0
0
0
0
0
0
0
0
0
0
0
0
0
0
0
0
0
0
0
0
1
1
0
0
0
0
0
0
0
0
0
0
0
0
0
0
0
0
0
0
0
0
0
0
0
0
0
0
0
0
0
0
0
0
0
0
1
1
0
0
0
0
0
0
0
0
0
0
0
0
0
0
0
0
0
0
0
0
0
0
0
0
0
0
0
0
0
0
0
0
0
0
0
0
0
0
0
0
0
0
0
0
0
0
0
0
0
0
0
0
0
0
0
0
0
1
1
0
0
0
0
0
0
0
0
0
0
0
0
0
0
0
0
0
0
0
0
0
0
0
0
0
0
0
0
0
0
0
0
0
0
0
0
0
0
0
0
0
0
0
0
0
0
0
0
0
0
0
0
0
0
0
0
0
1
1
0
0
0
0
0
0
0
0
0
0
0
0
0
0
0
0
0
0
0
0
0
0
0
0
0
0
0
0
0
0
0
0
0
0
0
0
0
0
0
0
0
0
0
0
0
0
0
0
0
0
0
0
0
0
0
0
0
1
1
0
0
0
0
0
0
0
0
0
0
0
0
0
0
0
0
0
0
0
0
0
0
0
0
0
0
0
0
0
0
0
0
0
0
0
0
0
0
0
0
0
0
0
0
0
0
0
0
0
0
0
0
0
0
0
0
0
1
1
0
0
0
0
0
0
0
0
0
0
0
0
0
0
0
0
0
0
0
0
0
0
0
0
0
0
0
0
0
0
0
0
0
0
0
0
0
0
0
0
0
0
0
0
0
0
0
0
0
0
0
0
0
0
0
0
0
1
1
0
0
0
0
0
0
0
0
0
0
0
0
0
0
0
0
0
0
0
0
0
0
0
0
0
0
0
0
0
0
0
0
0
0
0
0
0
0
0
0
0
0
0
0
0
0
0
0
0
0
0
0
0
0
0
0
0
1
1
0
0
0
0
0
0
0
0
0
0
0
0
0
0
0
0
0
0
0
0
0
0
0
0
0
0
0
0
0
0
0
0
0
0
0
0
0
0
0
0
0
0
0
0
0
0
0
0
0
0
0
0
0
0
0
0
0
1
1
0
0
0
0
0
0
0
0
0
0
0
0
0
0
0
0
0
0
0
0
0
0
0
0
0
0
0
0
0
0
0
0
0
0
0
0
0
0
0
0
0
0
0
0
0
0
0
0
0
0
0
0
0
0
0
0
0
1
1
0
0
0
0
0
0
0
0
0
0
0
0
0
0
0
0
0
0
0
0
0
0
0
0
0
0
0
0
0
0
0
0
0
0
0
0
0
0
0
0
0
0
0
0
0
0
0
0
0
0
0
0
0
0
0
0
0
1
1
0
0
0
0
0
0
0
0
0
0
0
0
0
0
0
0
0
0
0
0
0
0
0
0
0
0
0
0
0
0
0
0
0
0
0
0
0
0
0
0
0
0
0
0
0
0
0
0
0
0
0
0
0
0
0
0
0
1
1
0
0
0
0
0
0
0
0
0
0
0
0
0
0
0
0
0
0
0
0
0
1
1
0
0
0
0
0
0
0
0
0
0
0
0
0
0
0
0
0
0
0
0
0
0
0
0
0
0
0
0
0
0
0
0
0
0
1
1
0
0
0
0
0
0
0
0
0
0
0
0
0
0
0
0
0
0
0
0
1
1
0
0
0
0
0
0
0
0
0
0
0
0
0
0
0
0
0
0
0
0
0
0
0
0
0
0
0
0
0
0
0
0
0
1
1
0
0
0
0
0
0
0
0
0
0
0
0
0
0
0
0
0
0
0
0
1
1
0
0
0
0
0
0
0
0
0
0
0
0
0
0
0
0
0
0
0
0
0
0
0
0
0
0
0
0
0
0
0
0
0
1
1
0
0
0
0
0
0
0
0
0
0
0
0
0
0
0
0
0
0
0
0
1
1
0
0
0
0
0
0
0
0
0
0
0
0
0
0
0
0
0
0
0
0
0
0
0
0
0
0
0
0
0
0
0
0
0
1
1
0
0
0
0
0
0
0
0
0
0
0
0
0
0
0
0
0
0
0
0
1
1
0
0
0
0
0
0
0
0
0
0
0
0
0
0
0
0
0
0
0
0
0
0
0
0
0
0
0
0
0
0
0
0
0
1
1
0
0
0
0
0
0
0
0
0
0
0
0
0
0
0
0
0
0
0
0
1
1
0
0
0
0
0
0
0
0
0
0
0
0
0
0
0
0
0
0
0
0
0
0
0
0
0
0
0
0
0
0
0
0
0
1
1
0
0
0
0
0
0
0
0
0
0
0
0
0
0
0
0
0
0
0
0
1
1
0
0
0
0
0
0
0
0
0
0
0
0
0
0
0
0
0
0
0
0
0
0
0
0
0
0
0
0
0
0
0
0
0
1
1
0
0
0
0
0
0
0
0
0
0
0
0
0
0
0
0
0
0
0
0
1
1
0
0
0
0
0
0
0
0
0
0
0
0
0
0
0
0
0
0
0
0
0
0
0
0
0
0
0
0
0
0
0
0
0
1
1
0
0
0
0
0
0
0
0
0
0
0
0
0
0
0
0
0
0
0
0
1
1
0
0
0
0
0
0
0
0
0
0
0
0
0
0
0
0
0
0
0
0
0
0
0
0
0
0
0
0
0
0
0
0
0
1
1
0
0
0
0
0
0
0
0
0
0
0
0
0
0
0
0
0
0
0
0
1
1
0
0
0
0
0
0
0
0
0
0
0
0
0
0
0
0
0
0
0
0
0
0
0
0
0
0
0
0
0
0
0
0
0
1
1
0
0
0
0
0
0
0
0
0
0
0
0
0
0
0
0
0
0
0
0
1
1
0
0
0
0
0
0
0
0
0
0
0
0
0
0
0
0
0
0
0
0
0
0
0
0
0
0
0
0
0
0
0
0
0
1
1
0
0
0
0
0
0
0
0
0
0
0
0
0
0
0
0
0
0
0
0
1
1
0
0
0
0
0
0
0
0
0
0
0
0
0
0
0
0
0
0
0
0
0
0
0
0
0
0
0
0
0
0
0
0
0
1
1
0
0
0
0
0
0
0
0
0
0
0
0
0
0
0
0
0
0
0
0
1
1
0
0
0
0
0
0
0
0
0
0
0
0
0
0
0
0
0
0
0
0
0
0
0
0
0
0
0
0
0
0
0
0
0
1
1
0
0
0
0
0
0
0
0
0
0
0
0
0
0
0
0
0
0
0
0
1
1
0
0
0
0
0
0
0
0
0
0
0
0
0
0
0
0
0
0
0
0
0
0
0
0
0
0
0
0
0
0
0
0
0
1
1
0
0
0
0
0
0
0
0
0
0
0
0
0
0
0
0
0
0
0
0
1
1
0
0
0
0
0
0
0
0
0
0
0
0
0
0
0
0
0
0
0
0
0
0
0
0
0
0
0
0
0
0
0
0
0
1
1
0
0
0
0
0
0
0
0
0
0
0
0
0
0
0
0
0
0
0
0
1
1
0
0
0
0
0
0
0
0
0
0
0
0
0
0
0
0
0
0
0
0
0
0
0
0
0
0
0
0
0
0
0
0
0
1
1
0
0
0
0
0
0
0
0
0
0
0
0
0
0
0
0
0
0
0
0
1
1
0
0
0
0
0
0
0
0
0
0
0
0
0
0
0
0
0
0
0
0
0
0
0
0
0
0
0
0
0
0
0
0
0
1
1
0
0
0
0
0
0
0
0
0
0
0
0
0
0
0
0
0
0
0
0
1
1
0
0
0
0
0
0
0
0
0
0
0
0
0
0
0
0
0
0
0
0
0
0
0
0
0
0
0
0
0
0
0
0
0
1
1
0
0
0
0
0
0
0
0
0
0
0
0
0
0
0
0
0
0
0
0
1
1
0
0
0
0
0
0
0
0
0
0
0
0
0
0
0
0
0
0
0
0
0
0
0
0
0
0
0
0
0
0
0
0
0
1
1
0
0
0
0
0
0
0
0
0
0
0
0
0
0
0
0
0
0
0
0
1
1
0
0
0
0
0
0
0
0
0
0
0
0
0
0
0
0
0
0
0
0
0
0
0
0
0
0
0
0
0
0
0
0
0
1
1
0
0
0
0
0
0
0
0
0
0
0
0
0
0
0
0
0
0
0
0
1
1
0
0
0
0
0
0
0
0
0
0
0
0
0
0
0
0
0
0
0
0
0
0
0
0
0
0
0
0
0
0
0
0
0
1
1
0
0
0
0
0
0
0
0
0
0
0
0
0
0
0
0
0
0
0
0
1
1
0
0
0
0
0
0
0
0
0
0
0
0
0
0
0
0
0
0
0
0
0
0
0
0
0
0
0
0
0
0
0
0
0
1
1
1
1
1
1
1
1
1
1
1
1
1
1
1
1
1
1
1
1
1
1
1
1
1
1
1
1
1
1
1
1
1
1
1
1
1
1
1
1
1
1
1
1
1
1
1
1
1
1
1
1
1
1
1
1
1
1
				</DataArray>
				<DataArray type="Float64" Name="h" NumberOfComponents="1" Format="ascii">
1.2757882027
1.2726120430
1.2719258211
1.2705860212
1.2686566569
1.2662286221
1.2634144704
1.2603418804
1.2571449865
1.2539562549
1.2508981301
1.2480748610
1.2455666390
1.2434251282
1.2416716737
1.2402990857
1.2392757709
1.2385534570
1.2380769606
1.2377936097
1.2376628394
1.2376628394
1.1187611010
1.1175360267
1.1178511260
1.1184733479
1.1193920916
1.1206022195
1.1221135372
1.1239607779
1.1262120027
1.1289758527
1.1324068555
1.1367043889
1.1421019604
1.1488414046
1.1571260248
1.1670534122
1.1785405207
1.1912689750
1.2046844151
1.2180735905
1.2307059758
1.2419832544
1.2515403820
1.2592686723
1.2652685133
1.2697707685
1.2730595593
1.2754139346
1.2770750687
1.2782333326
1.2790282813
1.2795560525
1.2798784667
1.2800314459
1.2800314459
1.2726120430
1.2693582206
1.2687305685
1.2675054604
1.2657423482
1.2635259638
1.2609617461
1.2581699510
1.2552774272
1.2524096861
1.2496825021
1.2471935144
1.2450160589
1.2431945067
1.2417425277
1.2406451225
1.2398632102
1.2393418964
1.2390206243
1.2388427986
1.2387653804
1.2376628394
1.1175360267
1.1162926897
1.1166199521
1.1172686594
1.1182326113
1.1195135266
1.1211307903
1.1231316319
1.1255994646
1.1286603720
1.1324864068
1.1372907512
1.1433107237
1.1507733968
1.1598398482
1.1705329594
1.1826680495
1.1958193680
1.2093525316
1.2225324390
1.2346752521
1.2452805147
1.2540977598
1.2611166652
1.2665018382
1.2705125219
1.2734335526
1.2755283138
1.2770155934
1.2780630749
1.2787908333
1.2792800372
1.2795820547
1.2797263552
1.2800314459
1.2726387504
1.2694128149
1.2687938202
1.2675855938
1.2658467202
1.2636606414
1.2611311069
1.2583763360
1.2555208860
1.2526878475
1.2499906151
1.2475247011
1.2453618028
1.2435453885
1.2420891797
1.2409793163
1.2401789424
1.2396362867
1.2392944296
1.2391003797
1.2390140240
1.2379525291
1.1171379795
1.1159015308
1.1162363840
1.1169001455
1.1178865828
1.1191977501
1.1208538205
1.1229030731
1.1254297256
1.1285595286
1.1324617822
1.1373429702
1.1434284554
1.1509280415
1.1599828462
1.1705993452
1.1825888525
1.1955411813
1.2088568087
1.2218445571
1.2338577705
1.2444141698
1.2532598595
1.2603656662
1.2658714585
1.2700136381
1.2730601702
1.2752643464
1.2768405847
1.2779562150
1.2787332771
1.2792558596
1.2795782340
1.2797321113
1.2800231106
1.2726888387
1.2695172956
1.2689153682
1.2677404110
1.2660492782
1.2639228440
1.2614615039
1.2587794460
1.2559967077
1.2532316224
1.2505929324
1.2481720198
1.2460374317
1.2442309423
1.2427664438
1.2416323495
1.2407961574
1.2402121555
1.2398304528
1.2396050103
1.2395013632
1.2385219475
1.1163495148
1.1151269138
1.1154770254
1.1161710103
1.1172025071
1.1185741547
1.1203075826
1.1224529959
1.1250959921
1.1283613980
1.1324128174
1.1374434032
1.1436552292
1.1512250372
1.1602563460
1.1707252529
1.1824360286
1.1950075076
1.2079046524
1.2205180762
1.2322719151
1.2427208731
1.2516080592
1.2588712666
1.2646043874
1.2689997939
1.2722918291
1.2747128473
1.2764674624
1.2777212594
1.2785993478
1.2791910084
1.2795558721
1.2797298563
1.2799901391
1.2727555194
1.2696621093
1.2690851738
1.2679589063
1.2663375791
1.2642982478
1.2619363412
1.2593601074
1.2566829606
1.2540163100
1.2514621807
1.2491060577
1.2470120673
1.2452197026
1.2437432626
1.2425745452
1.2416873349
1.2410445557
1.2406062692
1.2403362644
1.2402080715
1.2393515493
1.1151850741
1.1139834415
1.1143566032
1.1150961526
1.1161953810
1.1176576008
1.1195063404
1.1217942834
1.1246085518
1.1280719851
1.1323392167
1.1375836143
1.1439738513
1.1516405775
1.1606362958
1.1708970755
1.1822187994
1.1942591363
1.2065680431
1.2186449606
1.2300114721
1.2402783009
1.2491922988
1.2566524632
1.2626923189
1.2674426763
1.2710882229
1.2738284008
1.2758506791
1.2773155292
1.2783505361
1.2790511407
1.2794838746
1.2796902558
1.2798980696
1.2728271436
1.2698314896
1.2692867746
1.2682232328
1.2666917257
1.2647642864
1.2625298476
1.2600889406
1.2575464406
1.2550049100
1.2525578888
1.2502835271
1.2482405829
1.2464659442
1.2449746845
1.2437630331
1.2428126986
1.2420973090
1.2415891691
1.2412641464
1.2411056350
1.2404120255
1.1136640135
1.1124906972
1.1128948712
1.1136955517
1.1148852861
1.1164679240
1.1184690238
1.1209438542
1.1239806272
1.1276985192
1.1322395475
1.1377512009
1.1443604029
1.1521423809
1.1610905770
1.1710966666
1.1819487980
1.1933489952
1.2049419277
1.2163495339
1.2272077853
1.2372008538
1.2460924378
1.2537473296
1.2601339322
1.2653100587
1.2693968416
1.2725480695
1.2749244563
1.2766753106
1.2779276431
1.2787820582
1.2793121165
1.2795654371
1.2796912633
1.2728860156
1.2700023326
1.2694961923
1.2685076804
1.2670834575
1.2652894041
1.2632065491
1.2609261106
1.2585427551
1.2561485879
1.2538272622
1.2516485448
1.2496652447
1.2479115950
1.2464039158
1.2451437844
1.2441220774
1.2433245769
1.2427373893
1.2423500225
1.2421571054
1.2416646184
1.1118083127
1.1106709425
1.1111142808
1.1119918810
1.1132949243
1.1150273920
1.1172166388
1.1199201077
1.1232260071
1.1272475235
1.1321101109
1.1379298964
1.1447858987
1.1526927684
1.1615824906
1.1713032080
1.1816378446
1.1923342609
1.2031313897
1.2137740308
1.2240182450
1.2336346263
1.2424206758
1.2502213131
1.2569461737
1.2625772353
1.2671625915
1.2707982434
1.2736066929
1.2757171208
1.2772499089
1.2783072636
1.2789679795
1.2792850264
1.2792890883
1.2729075739
1.2701435348
1.2696813199
1.2687781623
1.2674757959
1.2658329257
1.2639214334
1.2618218578
1.2596172868
1.2573881215
1.2552071333
1.2531350697
1.2512185698
1.2494893972
1.2479656270
1.2466548829
1.2455579738
1.2446736034
1.2440024823
1.2435486609
1.2433189463
1.2430625923
1.1096399530
1.1085464940
1.1090372960
1.1100077004
1.1114466449
1.1133575635
1.1157690084
1.1187396607
1.1223559813
1.1267222556
1.1319433009
1.1380992899
1.1452176329
1.1532513991
1.1620738203
1.1714946764
1.1812955319
1.1912684028
1.2012382138
1.2110620351
1.2206107254
1.2297471120
1.2383190383
1.2461723287
1.2531746033
1.2592394316
1.2643394842
1.2685038376
1.2718049358
1.2743404706
1.2762150265
1.2775258769
1.2783528761
1.2787519839
1.2785822839
1.2728593167
1.2702151972
1.2698011832
1.2689915988
1.2678226168
1.2663448918
1.2646201245
1.2627170852
1.2607062538
1.2586554707
1.2566260434
1.2546694526
1.2528262497
1.2511260631
1.2495891653
1.2482296128
1.2470583680
1.2460871296
1.2453313105
1.2448098635
1.2445424508
1.2445524125
1.1071776153
1.1061363905
1.1066830467
1.1077620710
1.1093590104
1.1114758310
1.1141413689
1.1174141423
1.1213765594
1.1261206689
1.1317266944
1.1382353960
1.1456213523
1.1537786972
1.1625285418
1.1716503369
1.1809288023
1.1901963965
1.1993510699
1.2083443929
1.2171478229
1.2257137251
1.2339519638
1.2417312885
1.2489011494
1.2553241425
1.2609043456
1.2656007212
1.2694259404
1.2724340009
1.2747020369
1.2763129050
1.2773407122
1.2778401541
1.2774317602
1.2727010061
1.2701692192
1.2698065901
1.2690966760
1.2680695818
1.2667672273
1.2652403537
1.2635451907
1.2617389458
1.2598764342
1.2580072998
1.2561738310
1.2544107765
1.2527459937
1.2512022136
1.2497999139
1.2485598577
1.2475061519
1.2466684153
1.2460805032
1.2457755803
1.2460755533
1.1044335679
1.1034532839
1.1040641793
1.1052673097
1.1070434232
1.1093919440
1.1123408839
1.1159468622
1.1202855332
1.1254331732
1.1314418254
1.1383106614
1.1459624587
1.1542378466
1.1629148835
1.1717519946
1.1805415071
1.1891516384
1.1975387237
1.2057279887
1.2137717621
1.2217014026
1.2294926402
1.2370549342
1.2442451359
1.2508994314
1.2568696434
1.2620498791
1.2663886059
1.2698857116
1.2725784063
1.2745234745
1.2757800393
1.2763953305
1.2756719795
1.2723862696
1.2699514336
1.2696423214
1.2690361535
1.2681566193
1.2670364530
1.2657149536
1.2642353814
1.2626413771
1.2609746301
1.2592732383
1.2575705927
1.2558960011
1.2542758131
1.2527351882
1.2513005559
1.2500015539
1.2488735197
1.2479593197
1.2473075677
1.2469658431
1.2475716303
1.1014104573
1.1005002899
1.1011836195
1.1025255594
1.1045004477
1.1071041204
1.1103626726
1.1143289655
1.1190690286
1.1246398786
1.1310623673
1.1382931673
1.1462060583
1.1545952816
1.1632057902
1.1717841166
1.1801339948
1.1881545553
1.1958465391
1.2032884307
1.2105919435
1.2178514856
1.2251041735
1.2323098326
1.2393541770
1.2460735147
1.2522908495
1.2578498482
1.2626383665
1.2665968268
1.2697119569
1.2720024502
1.2735017484
1.2742418812
1.2731210686
1.2718651059
1.2695047034
1.2692502698
1.2687500810
1.2680212560
1.2670871590
1.2659754876
1.2647164584
1.2633402017
1.2618754906
1.2603492213
1.2587862827
1.2572108490
1.2556478042
1.2541243357
1.2526718718
1.2513274606
1.2501359843
1.2491522716
1.2484396259
1.2480615712
1.2489801566
1.0980968876
1.0972666581
1.0980302491
1.0995244203
1.1017153910
1.1045946643
1.1081856380
1.1125356992
1.1176984612
1.1237084571
1.1305529993
1.1381463997
1.1463173194
1.1548212285
1.1633794166
1.1717343893
1.1797040637
1.1872140058
1.1942975046
1.2010687758
1.2076789250
1.2142673876
1.2209217274
1.2276525503
1.2343874747
1.2409855600
1.2472666601
1.2530455314
1.2581619959
1.2624995789
1.2659892335
1.2686020312
1.2703355477
1.2711984845
1.2696012011
1.2710881240
1.2687737355
1.2685742630
1.2681806407
1.2676034746
1.2668568656
1.2659570877
1.2649215863
1.2637673533
1.2625106966
1.2611677834
1.2597553824
1.2582926743
1.2568028146
1.2553142085
1.2538618597
1.2524882763
1.2512457612
1.2501995817
1.2494279245
1.2490128163
1.2502420366
1.0944630479
1.0937235635
1.0945746899
1.0962326191
1.0986538304
1.1018254645
1.1057681497
1.1105225389
1.1161273498
1.1225918003
1.1298678988
1.1378283553
1.1462608217
1.1548889832
1.1634183211
1.1715932414
1.1792474651
1.1863291936
1.1928952001
1.1990820127
1.2050638070
1.2110080770
1.2170386474
1.2232097096
1.2294939989
1.2357875963
1.2419293527
1.2477291654
1.2529985793
1.2575757770
1.2613387791
1.2642073448
1.2661363903
1.2671047363
1.2649701977
1.2700118504
1.2677109007
1.2675658833
1.2672779566
1.2668514937
1.2662917356
1.2656040421
1.2647936843
1.2638651557
1.2628229210
1.2616729323
1.2604241168
1.2590905638
1.2576930953
1.2562601208
1.2548283703
1.2534434278
1.2521624802
1.2510594697
1.2502280295
1.2497727537
1.2513016459
1.0904562101
1.0898198407
1.0907650123
1.0925954889
1.0952568076
1.0987330586
1.1030432613
1.1082208746
1.1142877331
1.1212252873
1.1289487731
1.1372900433
1.1459991526
1.1547733645
1.1633078899
1.1713527468
1.1787580115
1.1854915771
1.1916275563
1.1973157727
1.2027418236
1.2080875555
1.2134989228
1.2190622084
1.2247902251
1.2306204846
1.2364250532
1.2420300006
1.2472411584
1.2518701769
1.2557540714
1.2587660735
1.2608180935
1.2618565748
1.2591603328
1.2686039918
1.2662818066
1.2661900105
1.2660055687
1.2657271181
1.2653517265
1.2648746590
1.2642898963
1.2635902924
1.2627692007
1.2618228522
1.2607524586
1.2595666591
1.2582830086
1.2569283536
1.2555389377
1.2541606457
1.2528525630
1.2516951864
1.2507985249
1.2502959169
1.2521056882
1.0859947449
1.0854762415
1.0865212459
1.0885295867
1.0914355833
1.0952237793
1.0999145878
1.1055349178
1.1120882698
1.1195260339
1.1277249794
1.1364760297
1.1454934292
1.1544509879
1.1630365048
1.1710071860
1.1782292273
1.1846882766
1.1904724072
1.1957398265
1.2006806420
1.2054816675
1.2102993654
1.2152398634
1.2203461826
1.2255933956
1.2308916223
1.2360969009
1.2410294345
1.2454961569
1.2493121826
1.2523179352
1.2543903071
1.2554470164
1.2522185129
1.2668484947
1.2644704738
1.2644299523
1.2643454636
1.2642105990
1.2640151939
1.2637455094
1.2633853671
1.2629170154
1.2623235012
1.2615917828
1.2607153280
1.2596967319
1.2585490771
1.2572958002
1.2559701550
1.2546151762
1.2532883007
1.2520738181
1.2510992204
1.2505356453
1.2526010741
1.0809643379
1.0805818604
1.0817322756
1.0839197624
1.0870688878
1.0911715018
1.0962549185
1.1023414365
1.1094151419
1.1173947551
1.1261159141
1.1353268245
1.1447052591
1.1539016606
1.1625965897
1.1705542521
1.1776563780
1.1839056147
1.1894031364
1.1943141633
1.1988306219
1.2031393192
1.2073993798
1.2117264876
1.2161828967
1.2207725741
1.2254407657
1.2300787203
1.2345346378
1.2386304317
1.2421811727
1.2450145542
1.2469880857
1.2480009700
1.2443342048
1.2647492319
1.2622829613
1.2622910433
1.2623016111
1.2623040601
1.2622821397
1.2622144222
1.2620759024
1.2618394011
1.2614785213
1.2609713626
1.2603035017
1.2594707257
1.2584802494
1.2573500631
1.2561077035
1.2547898196
1.2534478883
1.2521660772
1.2510901137
1.2504417871
1.2527328805
1.0752183556
1.0749946259
1.0762572019
1.0786207747
1.0820047869
1.0864201589
1.0919097531
1.0984944459
1.1061377207
1.1147219389
1.1240370561
1.1337841857
1.1436009274
1.1531114293
1.1619868420
1.1699970249
1.1770388526
1.1831326089
1.1883939881
1.1929967666
1.1971354442
1.2009957241
1.2047355392
1.2084732467
1.2122810979
1.2161822374
1.2201497644
1.2241084074
1.2279402820
1.2314959733
1.2346098622
1.2371183088
1.2388789884
1.2397871816
1.2358379197
1.2623313518
1.2597484433
1.2598016985
1.2599009669
1.2600324067
1.2601749775
1.2603010425
1.2603782598
1.2603713205
1.2602453093
1.2599698794
1.2595225130
1.2588913334
1.2580761925
1.2570874910
1.2559441528
1.2546724938
1.2533126803
1.2519428948
1.2507263913
1.2499532654
1.2524369557
1.0685819905
1.0685453449
1.0699314364
1.0724645314
1.0760692830
1.0807942992
1.0867100831
1.0938399358
1.1021244634
1.1114038210
1.1214149027
1.1318041593
1.1421621432
1.1520811252
1.1612190502
1.1693497471
1.1763856586
1.1823669653
1.1874273663
1.1917530544
1.1955444729
1.1989881677
1.2022405231
1.2054193854
1.2086009843
1.2118196261
1.2150681519
1.2182991663
1.2214282147
1.2243408298
1.2269035252
1.2289784889
1.2304414430
1.2311984005
1.2271651678
1.2596407272
1.2569183182
1.2570125233
1.2571925772
1.2574424177
1.2577375940
1.2580458436
1.2583290905
1.2585452967
1.2586520320
1.2586109606
1.2583912767
1.2579725716
1.2573458137
1.2565116262
1.2554772957
1.2542544057
1.2528650843
1.2513725348
1.2499531728
1.2489884401
1.2516300681
1.0608660833
1.0610511252
1.0625837185
1.0652787241
1.0690871400
1.0741229947
1.0804993999
1.0882449824
1.0972724103
1.1073703412
1.1182117705
1.1293777887
1.1404024953
1.1508390501
1.1603278877
1.1686457416
1.1757224577
1.1816221509
1.1865018136
1.1905656379
1.1940251673
1.1970718386
1.1998627537
1.2025152432
1.2051069249
1.2076782236
1.2102351289
1.2127515837
1.2151721599
1.2174170216
1.2193895206
1.2209867577
1.2221137238
1.2226973100
1.2187897370
1.2567412530
1.2538631100
1.2539932454
1.2542445750
1.2545998353
1.2550325610
1.2555074882
1.2559824756
1.2564102436
1.2567419453
1.2569318028
1.2569406029
1.2567385856
1.2563063402
1.2556325088
1.2547095947
1.2535295548
1.2520880017
1.2504193434
1.2487008928
1.2474323624
1.2501967914
1.0518864497
1.0523340675
1.0540611404
1.0569143787
1.0609138137
1.0662776576
1.0731767426
1.0816434862
1.0915521728
1.1026261628
1.1144606717
1.1265590170
1.1383887324
1.1494567493
1.1593826149
1.1679464700
1.1750992246
1.1809346782
1.1856397779
1.1894433351
1.1925740807
1.1952335074
1.1975832786
1.1997424020
1.2017900436
1.2037706152
1.2056990084
1.2075647747
1.2093354410
1.2109608555
1.2123785848
1.2135208074
1.2143241559
1.2147394962
1.2111435565
1.2537101823
1.2506673592
1.2508276211
1.2511391162
1.2515843484
1.2521361860
1.2527579645
1.2534051682
1.2540268335
1.2545689074
1.2549788568
1.2552090760
1.2552197370
1.2549796015
1.2544630878
1.2536445887
1.2524909563
1.2509606742
1.2490384568
1.2468745019
1.2451095115
1.2479617211
1.0414671340
1.0422238835
1.0442449096
1.0472694812
1.0514724513
1.0572241286
1.0647603371
1.0741047209
1.0850743593
1.0973096325
1.1103140342
1.1235027775
1.1362694390
1.1480702428
1.1585029438
1.1673538520
1.1746004454
1.1803732270
1.1848964092
1.1884302193
1.1912266535
1.1935025304
1.1954283943
1.1971281457
1.1986842575
1.2001449968
1.2015318769
1.2028455659
1.2040701561
1.2051776591
1.2061321854
1.2068941598
1.2074265848
1.2077008544
1.2045518099
1.2506332539
1.2474243696
1.2476081691
1.2479670871
1.2484842584
1.2491331139
1.2498770938
1.2506709655
1.2514616910
1.2521913639
1.2528016024
1.2532366792
1.2534462135
1.2533858315
1.2530134509
1.2522817251
1.2511261130
1.2494547231
1.2471716798
1.2443421152
1.2417384061
1.2446433930
1.0293755135
1.0304934503
1.0330201679
1.0362897767
1.0407954250
1.0470994581
1.0554844641
1.0659335309
1.0781802082
1.0917668761
1.1060996150
1.1205045628
1.1343016835
1.1468974043
1.1578702961
1.1670177714
1.1743504806
1.1800428438
1.1843631310
1.1876088272
1.1900601938
1.1919537042
1.1934724949
1.1947484242
1.1958693767
1.1968881323
1.1978315714
1.1987078874
1.1995116299
1.2002286102
1.2008395417
1.2013226913
1.2016579408
1.2018299704
1.1991995786
1.2476002412
1.2442313702
1.2444312920
1.2448231326
1.2453913330
1.2461108795
1.2469465903
1.2478540067
1.2487795787
1.2496630184
1.2504413196
1.2510514127
1.2514325374
1.2515266004
1.2512733347
1.2506001899
1.2494041928
1.2475265464
1.2447459752
1.2409292564
1.2368524294
1.2397741888
1.0149796114
1.0165214285
1.0200887410
1.0239264191
1.0291044821
1.0363608665
1.0459656475
1.0578189453
1.0715562536
1.0866299489
1.1023672918
1.1180238316
1.1328588481
1.1462365210
1.1577215598
1.1671278379
1.1745048382
1.1800763262
1.1841591690
1.1870915751
1.1891848286
1.1906974392
1.1918272905
1.1927161298
1.1934586683
1.1941126100
1.1947091032
1.1952607363
1.1957670155
1.1962197176
1.1966064652
1.1969128180
1.1971255649
1.1972348465
1.1951330840
1.2447021467
1.2411863555
1.2413941123
1.2418024520
1.2423974520
1.2431561638
1.2440454766
1.2450225818
1.2460344044
1.2470193045
1.2479107053
1.2486392501
1.2491349573
1.2493274968
1.2491402260
1.2484769399
1.2471949920
1.2450553821
1.2416530936
1.2364431263
1.2296779818
1.2325768630
0.9956875138
0.9977565502
1.0044498744
1.0102382243
1.0171793685
1.0261901173
1.0375327834
1.0510579474
1.0663601598
1.0828686487
1.0998922854
1.1166594865
1.1323931589
1.1464252682
1.1583097509
1.1678780654
1.1752193394
1.1806072774
1.1844074118
1.1869982408
1.1887215517
1.1898575861
1.1906189765
1.1911575964
1.1915751389
1.1919338585
1.1922678045
1.1925911542
1.1929038281
1.1931972876
1.1934583877
1.1936716657
1.1938229664
1.1939017272
1.1922881890
1.2420323084
1.2383889028
1.2385956244
1.2390026091
1.2395973563
1.2403586423
1.2412549190
1.2422442789
1.2432729485
1.2442761040
1.2451809028
1.2459079664
1.2463735633
1.2464910966
1.2461671065
1.2452916934
1.2437155826
1.2411920303
1.2372354734
1.2307986845
1.2199209508
1.2227483021
0.9593131652
0.9621789364
0.9842394156
0.9969739234
1.0078844352
1.0195411083
1.0328063144
1.0477896777
1.0642385196
1.0816923313
1.0995283966
1.1169945242
1.1332924836
1.1477182814
1.1598039423
1.1693870433
1.1765868078
1.1817192426
1.1851922659
1.1874194809
1.1887691195
1.1895401909
1.1899580508
1.1901833588
1.1903237735
1.1904450128
1.1905825035
1.1907497402
1.1909438610
1.1911518958
1.1913551170
1.1915319742
1.1916626808
1.1917323403
1.1905312497
1.2396894708
1.2359429350
1.2361403963
1.2365292596
1.2370977943
1.2378254224
1.2386804733
1.2396193008
1.2405831153
1.2414965971
1.2422679628
1.2427853151
1.2429106355
1.2424671407
1.2412075181
1.2387503348
1.2344481094
1.2270946219
1.2142472701
1.1905070351
1.1427262013
1.0343312380
0.8792985729
0.9414529136
1.0192008570
1.0093032520
1.0097246881
1.0117135029
1.0170245174
1.0256584570
1.0371982205
1.0511294919
1.0669225989
1.0840059686
1.1016983663
1.1191810123
1.1355671274
1.1500616566
1.1621314963
1.1715888859
1.1785611582
1.1833912255
1.1865183494
1.1883832205
1.1893747436
1.1898066233
1.1899141269
1.1898647382
1.1897706219
1.1896997263
1.1896876193
1.1897457225
1.1898667848
1.1900315836
1.1902138632
1.1903840724
1.1905151034
1.1905864606
1.1897007589
1.2377768766
1.2339556065
1.2341382320
1.2344976549
1.2350226120
1.2356928023
1.2364761140
1.2373270935
1.2381824411
1.2389580331
1.2395472681
1.2398148438
1.2395880878
1.2386421970
1.2366667805
1.2332058136
1.2275462987
1.2184935217
1.2039119955
1.1797141526
1.1375211905
1.0599030170
0.8789554330
0.9420035386
0.9862430164
0.9946199218
1.0030518392
1.0103683291
1.0186560173
1.0287303084
1.0407724998
1.0546823542
1.0702263664
1.0870340817
1.1045390994
1.1219526598
1.1383459049
1.1528505682
1.1648713771
1.1741927161
1.1809459326
1.1854964137
1.1883105570
1.1898525214
1.1905289398
1.1906659140
1.1905068813
1.1902247923
1.1899352452
1.1897076004
1.1895769643
1.1895523146
1.1896218984
1.1897603722
1.1899342986
1.1901066195
1.1902434342
1.1903190922
1.1896411574
1.2363913727
1.2325263297
1.2326918205
1.2330171938
1.2334916824
1.2340954697
1.2347966148
1.2355492120
1.2362880859
1.2369250062
1.2373464677
1.2374066738
1.2369189107
1.2356426996
1.2332544734
1.2292983106
1.2231004841
1.2136033691
1.1990531667
1.1763807093
1.1399568573
1.0811270315
0.9641163271
0.9764583765
0.9933866588
0.9990204912
1.0060644195
1.0137199949
1.0226080133
1.0330356100
1.0450873009
1.0587435299
1.0739166053
1.0903812260
1.1076537883
1.1249532697
1.1413228479
1.1558279320
1.1678110453
1.1770260258
1.1836041871
1.1879287568
1.1904888612
1.1917684863
1.1921891471
1.1920871754
1.1917125516
1.1912424169
1.1907948341
1.1904399822
1.1902123329
1.1901187480
1.1901438595
1.1902575878
1.1904210747
1.1905916846
1.1907305353
1.1908082328
1.1902269029
1.2356093543
1.2317326974
1.2318813272
1.2321732064
1.2325981090
1.2331369148
1.2337584165
1.2344174207
1.2350490466
1.2355646323
1.2358495038
1.2357558733
1.2350949512
1.2336264545
1.2310334137
1.2268819125
1.2205548159
1.2111251278
1.1971344453
1.1761945052
1.1442766598
1.0964741298
1.0145933392
1.0027697039
1.0037540846
1.0056591381
1.0110119620
1.0183590614
1.0273111434
1.0377362913
1.0495976358
1.0629081300
1.0776768602
1.0937848198
1.1108214746
1.1280098482
1.1443457030
1.1588514812
1.1708148869
1.1799604521
1.1864165906
1.1905792875
1.1929550298
1.1940431309
1.1942765381
1.1939992695
1.1934660029
1.1928566688
1.1922907795
1.1918387881
1.1915345114
1.1913832975
1.1913674376
1.1914539729
1.1916008969
1.1917624247
1.1918969334
1.1919730109
1.1913778084
1.2354780084
1.2316218123
1.2317552955
1.2320170438
1.2323972443
1.2328773795
1.2334270393
1.2340021068
1.2345389374
1.2349502448
1.2351230806
1.2349118859
1.2341313192
1.2325475419
1.2298559015
1.2256466168
1.2193506305
1.2101369065
1.1967438767
1.1772044493
1.1484206626
1.1072392417
1.0445288215
1.0218484168
1.0139972445
1.0126344761
1.0163790071
1.0231421455
1.0318780799
1.0421248501
1.0537354180
1.0667264018
1.0811607279
1.0969850029
1.1138358096
1.1309436218
1.1472593608
1.1617728858
1.1737353705
1.1828487540
1.1892380227
1.1933071550
1.1955741188
1.1965484264
1.1966705357
1.1962893290
1.1956622104
1.1949704560
1.1943340019
1.1938230121
1.1934705746
1.1932810111
1.1932353665
1.1932994068
1.1934299403
1.1935801285
1.1937075352
1.1937802092
1.1930640175
1.2360128913
1.2322079391
1.2323284618
1.2325642985
1.2329057282
1.2333344242
1.2338203534
1.2343201287
1.2347712724
1.2350882709
1.2351608428
1.2348472218
1.2339674675
1.2322957185
1.2295393343
1.2253075596
1.2190633911
1.2100326477
1.1970611163
1.1783983097
1.1514073809
1.1136778229
1.0601057283
1.0335994514
1.0220554113
1.0188753892
1.0215191252
1.0276615529
1.0360007121
1.0459314092
1.0572515146
1.0699706181
1.0841665441
1.0998070236
1.1165428650
1.1336018158
1.1499095505
1.1644333306
1.1764068500
1.1855199381
1.1918951796
1.1959398637