<VTKFile type="UnstructuredGrid" version="0.1">
	<UnstructuredGrid>
		<Piece NumberOfPoints="13548" NumberOfCells="3387">
			<CellData>
				<DataArray type="Int32" Name="ghost" NumberOfComponents="1" Format="ascii">
1
1
1
1
1
1
1
1
1
1
1
1
1
1
1
1
1
1
1
1
1
1
1
1
1
1
1
1
1
1
1
1
1
1
1
1
1
1
1
1
1
1
1
1
1
1
1
1
1
1
1
1
1
1
1
1
1
1
0
0
0
0
0
0
0
0
0
0
0
0
0
0
0
0
0
0
0
0
1
1
0
0
0
0
0
0
0
0
0
0
0
0
0
0
0
0
0
0
0
0
0
0
0
0
0
0
0
0
0
0
0
0
0
1
1
0
0
0
0
0
0
0
0
0
0
0
0
0
0
0
0
0
0
0
0
1
1
0
0
0
0
0
0
0
0
0
0
0
0
0
0
0
0
0
0
0
0
0
0
0
0
0
0
0
0
0
0
0
0
0
1
1
0
0
0
0
0
0
0
0
0
0
0
0
0
0
0
0
0
0
0
0
1
1
0
0
0
0
0
0
0
0
0
0
0
0
0
0
0
0
0
0
0
0
0
0
0
0
0
0
0
0
0
0
0
0
0
1
1
0
0
0
0
0
0
0
0
0
0
0
0
0
0
0
0
0
0
0
0
1
1
0
0
0
0
0
0
0
0
0
0
0
0
0
0
0
0
0
0
0
0
0
0
0
0
0
0
0
0
0
0
0
0
0
1
1
0
0
0
0
0
0
0
0
0
0
0
0
0
0
0
0
0
0
0
0
1
1
0
0
0
0
0
0
0
0
0
0
0
0
0
0
0
0
0
0
0
0
0
0
0
0
0
0
0
0
0
0
0
0
0
1
1
0
0
0
0
0
0
0
0
0
0
0
0
0
0
0
0
0
0
0
0
1
1
0
0
0
0
0
0
0
0
0
0
0
0
0
0
0
0
0
0
0
0
0
0
0
0
0
0
0
0
0
0
0
0
0
1
1
0
0
0
0
0
0
0
0
0
0
0
0
0
0
0
0
0
0
0
0
1
1
0
0
0
0
0
0
0
0
0
0
0
0
0
0
0
0
0
0
0
0
0
0
0
0
0
0
0
0
0
0
0
0
0
1
1
0
0
0
0
0
0
0
0
0
0
0
0
0
0
0
0
0
0
0
0
1
1
0
0
0
0
0
0
0
0
0
0
0
0
0
0
0
0
0
0
0
0
0
0
0
0
0
0
0
0
0
0
0
0
0
1
1
0
0
0
0
0
0
0
0
0
0
0
0
0
0
0
0
0
0
0
0
1
1
0
0
0
0
0
0
0
0
0
0
0
0
0
0
0
0
0
0
0
0
0
0
0
0
0
0
0
0
0
0
0
0
0
1
1
0
0
0
0
0
0
0
0
0
0
0
0
0
0
0
0
0
0
0
0
1
1
0
0
0
0
0
0
0
0
0
0
0
0
0
0
0
0
0
0
0
0
0
0
0
0
0
0
0
0
0
0
0
0
0
1
1
0
0
0
0
0
0
0
0
0
0
0
0
0
0
0
0
0
0
0
0
1
1
0
0
0
0
0
0
0
0
0
0
0
0
0
0
0
0
0
0
0
0
0
0
0
0
0
0
0
0
0
0
0
0
0
1
1
0
0
0
0
0
0
0
0
0
0
0
0
0
0
0
0
0
0
0
0
1
1
0
0
0
0
0
0
0
0
0
0
0
0
0
0
0
0
0
0
0
0
0
0
0
0
0
0
0
0
0
0
0
0
0
1
1
0
0
0
0
0
0
0
0
0
0
0
0
0
0
0
0
0
0
0
0
1
1
0
0
0
0
0
0
0
0
0
0
0
0
0
0
0
0
0
0
0
0
0
0
0
0
0
0
0
0
0
0
0
0
0
1
1
0
0
0
0
0
0
0
0
0
0
0
0
0
0
0
0
0
0
0
0
1
1
0
0
0
0
0
0
0
0
0
0
0
0
0
0
0
0
0
0
0
0
0
0
0
0
0
0
0
0
0
0
0
0
0
1
1
0
0
0
0
0
0
0
0
0
0
0
0
0
0
0
0
0
0
0
0
1
1
0
0
0
0
0
0
0
0
0
0
0
0
0
0
0
0
0
0
0
0
0
0
0
0
0
0
0
0
0
0
0
0
0
1
1
0
0
0
0
0
0
0
0
0
0
0
0
0
0
0
0
0
0
0
0
1
1
0
0
0
0
0
0
0
0
0
0
0
0
0
0
0
0
0
0
0
0
0
0
0
0
0
0
0
0
0
0
0
0
0
1
1
0
0
0
0
0
0
0
0
0
0
0
0
0
0
0
0
0
0
0
0
1
1
0
0
0
0
0
0
0
0
0
0
0
0
0
0
0
0
0
0
0
0
0
0
0
0
0
0
0
0
0
0
0
0
0
1
1
0
0
0
0
0
0
0
0
0
0
0
0
0
0
0
0
0
0
0
0
1
1
0
0
0
0
0
0
0
0
0
0
0
0
0
0
0
0
0
0
0
0
0
0
0
0
0
0
0
0
0
0
0
0
0
1
1
0
0
0
0
0
0
0
0
0
0
0
0
0
0
0
0
0
0
0
0
1
1
0
0
0
0
0
0
0
0
0
0
0
0
0
0
0
0
0
0
0
0
0
0
0
0
0
0
0
0
0
0
0
0
0
1
1
0
0
0
0
0
0
0
0
0
0
0
0
0
0
0
0
0
0
0
0
1
1
0
0
0
0
0
0
0
0
0
0
0
0
0
0
0
0
0
0
0
0
0
0
0
0
0
0
0
0
0
0
0
0
0
1
1
0
0
0
0
0
0
0
0
0
0
0
0
0
0
0
0
0
0
0
0
1
1
0
0
0
0
0
0
0
0
0
0
0
0
0
0
0
0
0
0
0
0
0
0
0
0
0
0
0
0
0
0
0
0
0
1
1
0
0
0
0
0
0
0
0
0
0
0
0
0
0
0
0
0
0
0
0
1
1
0
0
0
0
0
0
0
0
0
0
0
0
0
0
0
0
0
0
0
0
0
0
0
0
0
0
0
0
0
0
0
0
0
1
1
0
0
0
0
0
0
0
0
0
0
0
0
0
0
0
0
0
0
0
0
1
1
0
0
0
0
0
0
0
0
0
0
0
0
0
0
0
0
0
0
0
0
0
0
0
0
0
0
0
0
0
0
0
0
0
1
1
0
0
0
0
0
0
0
0
0
0
0
0
0
0
0
0
0
0
0
0
1
1
0
0
0
0
0
0
0
0
0
0
0
0
0
0
0
0
0
0
0
0
0
0
0
0
0
0
0
0
0
0
0
0
0
1
1
0
0
0
0
0
0
0
0
0
0
0
0
0
0
0
0
0
0
0
0
0
1
1
0
0
0
0
0
0
0
0
0
0
0
0
0
0
0
0
0
0
0
0
0
0
0
0
0
0
0
0
0
0
0
0
0
0
1
1
0
0
0
0
0
0
0
0
0
0
0
0
0
0
0
0
0
0
0
0
0
0
0
0
0
0
0
0
0
0
0
0
0
0
0
0
0
0
0
0
0
0
0
0
0
0
0
0
0
0
0
0
0
0
0
0
0
1
1
0
0
0
0
0
0
0
0
0
0
0
0
0
0
0
0
0
0
0
0
0
0
0
0
0
0
0
0
0
0
0
0
0
0
0
0
0
0
0
0
0
0
0
0
0
0
0
0
0
0
0
0
0
0
0
0
0
1
1
0
0
0
0
0
0
0
0
0
0
0
0
0
0
0
0
0
0
0
0
0
0
0
0
0
0
0
0
0
0
0
0
0
0
0
0
0
0
0
0
0
0
0
0
0
0
0
0
0
0
0
0
0
0
0
0
0
1
1
0
0
0
0
0
0
0
0
0
0
0
0
0
0
0
0
0
0
0
0
0
0
0
0
0
0
0
0
0
0
0
0
0
0
0
0
0
0
0
0
0
0
0
0
0
0
0
0
0
0
0
0
0
0
0
0
0
1
1
0
0
0
0
0
0
0
0
0
0
0
0
0
0
0
0
0
0
0
0
0
0
0
0
0
0
0
0
0
0
0
0
0
0
0
0
0
0
0
0
0
0
0
0
0
0
0
0
0
0
0
0
0
0
0
0
0
1
1
0
0
0
0
0
0
0
0
0
0
0
0
0
0
0
0
0
0
0
0
0
0
0
0
0
0
0
0
0
0
0
0
0
0
0
0
0
0
0
0
0
0
0
0
0
0
0
0
0
0
0
0
0
0
0
0
0
1
1
0
0
0
0
0
0
0
0
0
0
0
0
0
0
0
0
0
0
0
0
0
0
0
0
0
0
0
0
0
0
0
0
0
0
0
0
0
0
0
0
0
0
0
0
0
0
0
0
0
0
0
0
0
0
0
0
0
1
1
0
0
0
0
0
0
0
0
0
0
0
0
0
0
0
0
0
0
0
0
0
0
0
0
0
0
0
0
0
0
0
0
0
0
0
0
0
0
0
0
0
0
0
0
0
0
0
0
0
0
0
0
0
0
0
0
0
1
1
0
0
0
0
0
0
0
0
0
0
0
0
0
0
0
0
0
0
0
0
0
0
0
0
0
0
0
0
0
0
0
0
0
0
0
0
0
0
0
0
0
0
0
0
0
0
0
0
0
0
0
0
0
0
0
0
0
1
1
0
0
0
0
0
0
0
0
0
0
0
0
0
0
0
0
0
0
0
0
0
0
0
0
0
0
0
0
0
0
0
0
0
0
0
0
0
0
0
0
0
0
0
0
0
0
0
0
0
0
0
0
0
0
0
0
0
1
1
0
0
0
0
0
0
0
0
0
0
0
0
0
0
0
0
0
0
0
0
0
1
1
0
0
0
0
0
0
0
0
0
0
0
0
0
0
0
0
0
0
0
0
0
0
0
0
0
0
0
0
0
0
0
0
0
0
1
1
0
0
0
0
0
0
0
0
0
0
0
0
0
0
0
0
0
0
0
0
1
1
0
0
0
0
0
0
0
0
0
0
0
0
0
0
0
0
0
0
0
0
0
0
0
0
0
0
0
0
0
0
0
0
0
1
1
0
0
0
0
0
0
0
0
0
0
0
0
0
0
0
0
0
0
0
0
1
1
0
0
0
0
0
0
0
0
0
0
0
0
0
0
0
0
0
0
0
0
0
0
0
0
0
0
0
0
0
0
0
0
0
1
1
0
0
0
0
0
0
0
0
0
0
0
0
0
0
0
0
0
0
0
0
1
1
0
0
0
0
0
0
0
0
0
0
0
0
0
0
0
0
0
0
0
0
0
0
0
0
0
0
0
0
0
0
0
0
0
1
1
0
0
0
0
0
0
0
0
0
0
0
0
0
0
0
0
0
0
0
0
1
1
0
0
0
0
0
0
0
0
0
0
0
0
0
0
0
0
0
0
0
0
0
0
0
0
0
0
0
0
0
0
0
0
0
1
1
0
0
0
0
0
0
0
0
0
0
0
0
0
0
0
0
0
0
0
0
1
1
0
0
0
0
0
0
0
0
0
0
0
0
0
0
0
0
0
0
0
0
0
0
0
0
0
0
0
0
0
0
0
0
0
1
1
0
0
0
0
0
0
0
0
0
0
0
0
0
0
0
0
0
0
0
0
1
1
0
0
0
0
0
0
0
0
0
0
0
0
0
0
0
0
0
0
0
0
0
0
0
0
0
0
0
0
0
0
0
0
0
1
1
0
0
0
0
0
0
0
0
0
0
0
0
0
0
0
0
0
0
0
0
1
1
0
0
0
0
0
0
0
0
0
0
0
0
0
0
0
0
0
0
0
0
0
0
0
0
0
0
0
0
0
0
0
0
0
1
1
0
0
0
0
0
0
0
0
0
0
0
0
0
0
0
0
0
0
0
0
1
1
0
0
0
0
0
0
0
0
0
0
0
0
0
0
0
0
0
0
0
0
0
0
0
0
0
0
0
0
0
0
0
0
0
1
1
0
0
0
0
0
0
0
0
0
0
0
0
0
0
0
0
0
0
0
0
1
1
0
0
0
0
0
0
0
0
0
0
0
0
0
0
0
0
0
0
0
0
0
0
0
0
0
0
0
0
0
0
0
0
0
1
1
0
0
0
0
0
0
0
0
0
0
0
0
0
0
0
0
0
0
0
0
1
1
0
0
0
0
0
0
0
0
0
0
0
0
0
0
0
0
0
0
0
0
0
0
0
0
0
0
0
0
0
0
0
0
0
1
1
0
0
0
0
0
0
0
0
0
0
0
0
0
0
0
0
0
0
0
0
1
1
0
0
0
0
0
0
0
0
0
0
0
0
0
0
0
0
0
0
0
0
0
0
0
0
0
0
0
0
0
0
0
0
0
1
1
0
0
0
0
0
0
0
0
0
0
0
0
0
0
0
0
0
0
0
0
1
1
0
0
0
0
0
0
0
0
0
0
0
0
0
0
0
0
0
0
0
0
0
0
0
0
0
0
0
0
0
0
0
0
0
1
1
0
0
0
0
0
0
0
0
0
0
0
0
0
0
0
0
0
0
0
0
1
1
0
0
0
0
0
0
0
0
0
0
0
0
0
0
0
0
0
0
0
0
0
0
0
0
0
0
0
0
0
0
0
0
0
1
1
0
0
0
0
0
0
0
0
0
0
0
0
0
0
0
0
0
0
0
0
1
1
0
0
0
0
0
0
0
0
0
0
0
0
0
0
0
0
0
0
0
0
0
0
0
0
0
0
0
0
0
0
0
0
0
1
1
0
0
0
0
0
0
0
0
0
0
0
0
0
0
0
0
0
0
0
0
1
1
0
0
0
0
0
0
0
0
0
0
0
0
0
0
0
0
0
0
0
0
0
0
0
0
0
0
0
0
0
0
0
0
0
1
1
0
0
0
0
0
0
0
0
0
0
0
0
0
0
0
0
0
0
0
0
1
1
0
0
0
0
0
0
0
0
0
0
0
0
0
0
0
0
0
0
0
0
0
0
0
0
0
0
0
0
0
0
0
0
0
1
1
0
0
0
0
0
0
0
0
0
0
0
0
0
0
0
0
0
0
0
0
1
1
0
0
0
0
0
0
0
0
0
0
0
0
0
0
0
0
0
0
0
0
0
0
0
0
0
0
0
0
0
0
0
0
0
1
1
0
0
0
0
0
0
0
0
0
0
0
0
0
0
0
0
0
0
0
0
1
1
0
0
0
0
0
0
0
0
0
0
0
0
0
0
0
0
0
0
0
0
0
0
0
0
0
0
0
0
0
0
0
0
0
1
1
0
0
0
0
0
0
0
0
0
0
0
0
0
0
0
0
0
0
0
0
1
1
0
0
0
0
0
0
0
0
0
0
0
0
0
0
0
0
0
0
0
0
0
0
0
0
0
0
0
0
0
0
0
0
0
1
1
0
0
0
0
0
0
0
0
0
0
0
0
0
0
0
0
0
0
0
0
1
1
0
0
0
0
0
0
0
0
0
0
0
0
0
0
0
0
0
0
0
0
0
0
0
0
0
0
0
0
0
0
0
0
0
1
1
0
0
0
0
0
0
0
0
0
0
0
0
0
0
0
0
0
0
0
0
1
1
0
0
0
0
0
0
0
0
0
0
0
0
0
0
0
0
0
0
0
0
0
0
0
0
0
0
0
0
0
0
0
0
0
1
1
1
1
1
1
1
1
1
1
1
1
1
1
1
1
1
1
1
1
1
1
1
1
1
1
1
1
1
1
1
1
1
1
1
1
1
1
1
1
1
1
1
1
1
1
1
1
1
1
1
1
1
1
1
1
1
1
				</DataArray>
				<DataArray type="Float64" Name="h" NumberOfComponents="1" Format="ascii">
1.0801760509
1.0777867636
1.0775628072
1.0771219250
1.0764783674
1.0756527255
1.0746713429
1.0735656191
1.0723703477
1.0711223731
1.0698589846
1.0686158782
1.0674257296
1.0663167738
1.0653119026
1.0644286848
1.0636795206
1.0630727167
1.0626137924
1.0623060574
1.0621516105
1.0621516105
1.2990533983
1.2985809173
1.2987416132
1.2990622968
1.2995412087
1.3001766329
1.3009662690
1.3019049622
1.3029823737
1.3041791229
1.3054626996
1.3067842640
1.3080758115
1.3092489516
1.3101958368
1.3107929789
1.3109092783
1.3104185011
1.3092165063
1.3072412157
1.3044914555
1.3010398479
1.2970331502
1.2926774385
1.2882102160
1.2838653595
1.2798412694
1.2762805885
1.2732644784
1.2708194543
1.2689325134
1.2675692054
1.2666891341
1.2662583814
1.2662583814
1.0777867636
1.0754053216
1.0752093348
1.0748235684
1.0742606675
1.0735388962
1.0726816374
1.0717168205
1.0706753902
1.0695900901
1.0684939960
1.0674186046
1.0663925005
1.0654400296
1.0645804788
1.0638281478
1.0631925573
1.0626795767
1.0622927535
1.0620339095
1.0619041550
1.0621516105
1.2985809173
1.2981154770
1.2983126171
1.2987045125
1.2992861828
1.3000514357
1.3009926484
1.3020990189
1.3033548390
1.3047362079
1.3062074594
1.3077183494
1.3092013429
1.3105702258
1.3117204520
1.3125318344
1.3128749945
1.3126218505
1.3116608301
1.3099156083
1.3073642030
1.3040544037
1.3001090093
1.2957169916
1.2911107717
1.2865334044
1.2822050891
1.2782982660
1.2749260972
1.2721444329
1.2699640833
1.2683679706
1.2673271848
1.2668145532
1.2662583814
1.0779691398
1.0755892512
1.0753969099
1.0750183944
1.0744662626
1.0737586369
1.0729186901
1.0719740605
1.0709553113
1.0698947065
1.0688247461
1.0677762646
1.0667771132
1.0658508615
1.0650160137
1.0642861204
1.0636700393
1.0631731094
1.0627985123
1.0625478702
1.0624222217
1.0626649271
1.2984440452
1.2980199441
1.2982231188
1.2986262126
1.2992225946
1.3000038489
1.3009597775
1.3020768677
1.3033367906
1.3047132955
1.3061687888
1.3076516474
1.3090935860
1.3104083218
1.3114919466
1.3122256366
1.3124821170
1.3121361295
1.3110795910
1.3092401724
1.3066000719
1.3032109811
1.2991987606
1.2947540850
1.2901094620
1.2855065276
1.2811630059
1.2772484443
1.2738732895
1.2710912274
1.2689115858
1.2673164177
1.2662763865
1.2657641548
1.2651713471
1.0783379264
1.0759619596
1.0757767846
1.0754125220
1.0748815582
1.0742017366
1.0733958167
1.0724908652
1.0715166974
1.0705046374
1.0694860571
1.0684904929
1.0675443571
1.0666696942
1.0658834660
1.0651977449
1.0646200758
1.0641547464
1.0638042135
1.0635697085
1.0634521353
1.0636857247
1.2981744244
1.2978306481
1.2980451484
1.2984692070
1.2990930032
1.2999038452
1.3008866140
1.3020226508
1.3032886869
1.3046540683
1.3060776010
1.3075050846
1.3088668161
1.3100763503
1.3110309326
1.3116142678
1.3117030428
1.3111773856
1.3099359359
1.3079141177
1.3051022682
1.3015596737
1.2974181262
1.2928715489
1.2881525296
1.2834998654
1.2791264274
1.2751961595
1.2718143050
1.2690304566
1.2668511885
1.2652569860
1.2642177829
1.2637059915
1.2630479949
1.0789014721
1.0765333359
1.0763586062
1.0760151175
1.0755150048
1.0748757032
1.0741193707
1.0732722420
1.0723630465
1.0714217449
1.0704780723
1.0695596816
1.0686908935
1.0678915302
1.0671762987
1.0665551017
1.0660335495
1.0656143771
1.0652989746
1.0650880097
1.0649822080
1.0652030695
1.2977809079
1.2975519073
1.2977815518
1.2982335131
1.2988934785
1.2997427799
1.3007594893
1.3019179041
1.3031880661
1.3045334084
1.3059079175
1.3072539253
1.3084997707
1.3095586944
1.3103293868
1.3106989000
1.3105493245
1.3097682983
1.3082639863
1.3059829084
1.3029270946
1.2991667151
1.2948419708
1.2901512436
1.2853269792
1.2806036790
1.2761871436
1.2722333239
1.2688401872
1.2660517353
1.2638709054
1.2622762285
1.2612368330
1.2607249402
1.2599879465
1.0796716454
1.0773173759
1.0771560290
1.0768391550
1.0763785642
1.0757911673
1.0750983502
1.0743252838
1.0734993113
1.0726486553
1.0718009655
1.0709814924
1.0702118850
1.0695091185
1.0688849999
1.0683466274
1.0678971015
1.0675371387
1.0672667536
1.0670859124
1.0669951562
1.0672006975
1.2972756393
1.2971894884
1.2974360272
1.2979188788
1.2986183002
1.2995084760
1.3005594445
1.3017373093
1.3030044335
1.3043175204
1.3056250645
1.3068653820
1.3079644270
1.3088348658
1.3093768386
1.3094811562
1.3090362863
1.3079390184
1.3061093658
1.3035077991
1.3001510732
1.2961229597
1.2915739509
1.2867075598
1.2817554954
1.2769463906
1.2724769276
1.2684930753
1.2650839861
1.2622871305
1.2601014271
1.2585034692
1.2574617959
1.2569486822
1.2561377493
1.0806632525
1.0783314045
1.0781859558
1.0779006973
1.0774870506
1.0769612995
1.0763439109
1.0756587923
1.0749316444
1.0741886332
1.0734549413
1.0727529768
1.0721012216
1.0715132666
1.0709974583
1.0705575333
1.0701935715
1.0699038630
1.0696867920
1.0695415454
1.0694685321
1.0696573496
1.2966732624
1.2967503027
1.2970129603
1.2975248982
1.2982605044
1.2991863421
1.3002640279
1.3014512154
1.3027024591
1.3039676468
1.3051896396
1.3063024797
1.3072293585
1.3078819524
1.3081615572
1.3079627798
1.3071810422
1.3057235324
1.3035240269
1.3005593326
1.2968633820
1.2925355536
1.2877377241
1.2826784677
1.2775876247
1.2726861736
1.2681597673
1.2641428240
1.2607147134
1.2579060326
1.2557118323
1.2541072071
1.2530606260
1.2525448543
1.2516845728
1.0818938362
1.0795956377
1.0794681230
1.0792185265
1.0788578271
1.0784015970
1.0778692627
1.0772833037
1.0766675677
1.0760459037
1.0754407163
1.0748712122
1.0743523026
1.0738937549
1.0734999931
1.0731709295
1.0729031998
1.0726923377
1.0725349201
1.0724293597
1.0723760693
1.0725480307
1.2959907327
1.2962428546
1.2965180022
1.2970518535
1.2978131209
1.2987611180
1.2998496139
1.3010285265
1.3022453369
1.3034437080
1.3045611596
1.3055273849
1.3062624027
1.3066763014
1.3066709828
1.3061446234
1.3049999386
1.3031555385
1.3005606083
1.2972102741
1.2931574888
1.2885184154
1.2834664510
1.2782142543
1.2729880017
1.2679989478
1.2634199123
1.2593725906
1.2559261461
1.2531045142
1.2508995067
1.2492855254
1.2482317430
1.2477120073
1.2468434933
1.0833824124
1.0811317073
1.0810236484
1.0808127383
1.0805094715
1.0801286430
1.0796885435
1.0792100953
1.0787151273
1.0782249666
1.0777589953
1.0773329394
1.0769578281
1.0766392686
1.0763774112
1.0761679926
1.0760038873
1.0758776430
1.0757839519
1.0757205646
1.0756881395
1.0758443336
1.2952450139
1.2956756526
1.2959566948
1.2964997590
1.2972688073
1.2982172167
1.2992924991
1.3004385069
1.3015971714
1.3027070712
1.3037009696
1.3045042010
1.3050331055
1.3051954118
1.3048929099
1.3040270093
1.3025080096
1.3002669291
1.2972698720
1.2935319146
1.2891262221
1.2841859849
1.2788951802
1.2734685829
1.2681262205
1.2630672791
1.2584500587
1.2543827382
1.2509243280
1.2480927680
1.2458776206
1.2442536538
1.2431916770
1.2426673020
1.2418422236
1.0851483556
1.0829613347
1.0828737240
1.0827034724
1.0824605627
1.0821589667
1.0818157715
1.0814502465
1.0810820773
1.0807299135
1.0804099314
1.0801341713
1.0799095587
1.0797373115
1.0796130752
1.0795281870
1.0794715670
1.0794326635
1.0794043189
1.0793838521
1.0793725253
1.0795151191
1.2944515930
1.2950564226
1.2953338460
1.2958680391
1.2966199334
1.2975392593
1.2985698582
1.2996520681
1.3007244572
1.3017220680
1.3025736598
1.3032001797
1.3035136661
1.3034185927
1.3028158623
1.3016098224
1.2997187599
1.2970871753
1.2936995249
1.2895920850
1.2848586817
1.2796487363
1.2741547346
1.2685906384
1.2631672560
1.2580692114
1.2534388004
1.2493702783
1.2459129660
1.2430798033
1.2408593088
1.2392277870
1.2381586593
1.2376299900
1.2369029762
1.0872107163
1.0851054501
1.0850387526
1.0849100854
1.0847289062
1.0845083398
1.0842642284
1.0840141242
1.0837754812
1.0835641602
1.0833930023
1.0832702259
1.0831985222
1.0831746026
1.0831895093
1.0832300971
1.0832812757
1.0833293990
1.0833655985
1.0833870944
1.0833962142
1.0835282337
1.2936239660
1.2943922040
1.2946537107
1.2951558599
1.2958590845
1.2967127115
1.2976604266
1.2986423752
1.2995964906
1.3004561280
1.3011468907
1.3015852741
1.3016783087
1.3013262731
1.3004284587
1.2988920086
1.2966437921
1.2936429688
1.2898936332
1.2854539924
1.2804380825
1.2750096284
1.2693664542
1.2637179861
1.2582624010
1.2531673540
1.2485580091
1.2445147226
1.2410779456
1.2382568298
1.2360401327
1.2344068452
1.2333339093
1.2328024612
1.2322236882
1.0895864904
1.0875823293
1.0875365036
1.0874493414
1.0873297784
1.0871900890
1.0870448542
1.0869098725
1.0868003088
1.0867291607
1.0867058532
1.0867347153
1.0868141665
1.0869364188
1.0870879603
1.0872512381
1.0874072371
1.0875393288
1.0876371424
1.0876981856
1.0877263613
1.0878513441
1.2927710911
1.2936871934
1.2939179513
1.2943602965
1.2949774683
1.2957225024
1.2965432538
1.2973836503
1.2981841633
1.2988785555
1.2993902171
1.2996311320
1.2995026079
1.2988998309
1.2977198853
1.2958727582
1.2932946562
1.2899605538
1.2858951118
1.2811784347
1.2759432302
1.2703644262
1.2646410672
1.2589738326
1.2535448787
1.2485028833
1.2439553019
1.2399691125
1.2365770378
1.2337857818
1.2315855978
1.2299591960
1.2288878054
1.2283561336
1.2279656307
1.0922889203
1.0904057720
1.0903803050
1.0903336334
1.0902741875
1.0902134071
1.0901646169
1.0901418477
1.0901579431
1.0902229958
1.0903429832
1.0905183502
1.0907433168
1.0910057471
1.0912877966
1.0915677543
1.0918229070
1.0920338302
1.0921888585
1.0922861272
1.0923315589
1.0924530670
1.2918962979
1.2929417026
1.2931246295
1.2934753759
1.2939639865
1.2945520616
1.2951966334
1.2958499438
1.2964585798
1.2969590704
1.2972736949
1.2973099630
1.2969628288
1.2961216038
1.2946807188
1.2925531840
1.2896852930
1.2860686954
1.2817488524
1.2768266579
1.2714507001
1.2658029032
1.2600787593
1.2544659331
1.2491276308
1.2441922722
1.2397497592
1.2358547597
1.2325337010
1.2297922442
1.2276233047
1.2260141755
1.2249509609
1.2244222982
1.2242467962
1.0953262218
1.0935837288
1.0935776888
1.0935696619
1.0935676011
1.0935821405
1.0936253680
1.0937095486
1.0938451926
1.0940394801
1.0942949650
1.0946083077
1.0949697375
1.0953631037
1.0957666572
1.0961549739
1.0965020011
1.0967857207
1.0969932652
1.0971235228
1.0971846082
1.0973055562
1.2909981067
1.2921526490
1.2922686700
1.2924924877
1.2928055373
1.2931834378
1.2935979694
1.2940147261
1.2943904142
1.2946670347
1.2947671382
1.2945940171
1.2940358216
1.2929753585
1.2913040560
1.2889380874
1.2858342763
1.2820011142
1.2775039899
1.2724621128
1.2670358532
1.2614090458
1.2557686462
1.2502854932
1.2451018060
1.2403254675
1.2360298235
1.2322588490
1.2290343538
1.2263623736
1.2242395262
1.2226583660
1.2216102803
1.2210880579
1.2211404769
1.0986993937
1.0971160803
1.0971281922
1.0971562797
1.0972078505
1.0972927659
1.0974219006
1.0976057625
1.0978525349
1.0981665158
1.0985469363
1.0989868969
1.0994730280
1.0999857266
1.1005000172
1.1009874248
1.1014190287
1.1017703586
1.1020271693
1.1021887812
1.1022650797
1.1023868092
1.2900690906
1.2913117139
1.2913401146
1.2913988375
1.2914857308
1.2915962994
1.2917230801
1.2918505293
1.2919499548
1.2919719941
1.2918412642
1.2914574354
1.2907016497
1.2894497118
1.2875896527
1.2850406232
1.2817696992
1.2778012161
1.2732181213
1.2681539297
1.2627755347
1.2572631454
1.2517905524
1.2465089392
1.2415387529
1.2369682195
1.2328559783
1.2292374135
1.2261315646
1.2235462214
1.2214826000
1.2199390161
1.2189123859
1.2183997531
1.2186806797
1.1023999817
1.1009923665
1.1010211083
1.1010822821
1.1011829758
1.1013323011
1.1015399340
1.1018146336
1.1021622796
1.1025843740
1.1030770343
1.1036302008
1.1042275387
1.1048468470
1.1054608982
1.1060390658
1.1065501203
1.1069671296
1.1072738471
1.1074689704
1.1075626788
1.1076838214
1.2890968829
1.2904053378
1.2903242620
1.2901779134
1.2899858026
1.2897693593
1.2895481693
1.2893314952
1.2891102598
1.2888474652
1.2884721250
1.2878813110
1.2869492198
1.2855441960
1.2835501955
1.2808884493
1.2775348054
1.2735268312
1.2689609105
1.2639793840
1.2587496472
1.2534429089
1.2482161382
1.2431994651
1.2384922415
1.2341650832
1.2302645179
1.2268197959
1.2238490999
1.2213632604
1.2193688288
1.2178702147
1.2168699706
1.2163694040
1.2168696833
1.1064083680
1.1051900818
1.1052338044
1.1053247721
1.1054696573
1.1056768206
1.1059547300
1.1063103968
1.1067474482
1.1072647578
1.1078556949
1.1085076777
1.1092023526
1.1099161283
1.1106208421
1.1112848651
1.1118752784
1.1123624372
1.1127268452
1.1129644740
1.1130826459
1.1131979321
1.2880673781
1.2894168449
1.2892040148
1.2888123565
1.2882881984
1.2876847563
1.2870550207
1.2864393528
1.2858538479
1.2852782365
1.2846488763
1.2838617428
1.2827843820
1.2812770980
1.2792184969
1.2765298475
1.2731926389
1.2692531459
1.2648153212
1.2600237532
1.2550401982
1.2500223531
1.2451082253
1.2404071950
1.2359996669
1.2319417046
1.2282708584
1.2250128759
1.2221869443
1.2198080683
1.2178886987
1.2164395156
1.2154686974
1.2149817475
1.2156854409
1.1106916079
1.1096725975
1.1097296686
1.1098471509
1.1100312733
1.1102896014
1.1106293534
1.1110557868
1.1115703722
1.1121696429
1.1128447978
1.1135816762
1.1143612279
1.1151600833
1.1159508272
1.1167022299
1.1173803393
1.1179522531
1.1183932350
1.1186931399
1.1188509169
1.1189502194
1.2869646824
1.2883256650
1.2879595189
1.2872846157
1.2863786385
1.2853317412
1.2842363881
1.2831704833
1.2821813064
1.2812702847
1.2803846753
1.2794212965
1.2782414499
1.2766964559
1.2746573470
1.2720418576
1.2688320605
1.2650765061
1.2608794833
1.2563808410
1.2517312359
1.2470718669
1.2425215149
1.2381708503
1.2340847570
1.2303085318
1.2268741552
1.2238064809
1.2211273938
1.2188569989
1.2170140228
1.2156154443
1.2146749531
1.2142021168
1.2150891930
1.1152013617
1.1143871890
1.1144561456
1.1145971775
1.1148159972
1.1151192832
1.1155129262
1.1160004308
1.1165812817
1.1172501273
1.1179968443
1.1188069985
1.1196625856
1.1205424917
1.1214220966
1.1222722087
1.1230585314
1.1237440724
1.1242961316
1.1246937462
1.1249190779
1.1249871769
1.2857723182
1.2871086392
1.2865698335
1.2855797701
1.2842505539
1.2827129566
1.2811041922
1.2795459619
1.2781229523
1.2768636823
1.2757303172
1.2746227262
1.2733962667
1.2718916873
1.2699689825
1.2675370615
1.2645716693
1.2611157312
1.2572660473
1.2531512479
1.2489069068
1.2446567323
1.2405019679
1.2365181302
1.2327589263
1.2292630385
1.2260602744
1.2231769979
1.2206392140
1.2184728043
1.2167029474
1.2153528020
1.2144413569
1.2139820539
1.2150305298
1.1198727132
1.1192640256
1.1193437223
1.1195059461
1.1197557782
1.1200988730
1.1205396960
1.1210800353
1.1217176773
1.1224460598
1.1232549072
1.1241312161
1.1250602013
1.1260254452
1.1270074992
1.1279810594
1.1289122129
1.1297588333
1.1304769668
1.1310291959
1.1313698201
1.1313874682
1.2844745940
1.2857428750
1.2850158314
1.2836894672
1.2819105115
1.2798515565
1.2776984099
1.2756221341
1.2737508225
1.2721455177
1.2707874000
1.2695815390
1.2683772415
1.2670022193
1.2653006458
1.2631658021
1.2605589118
1.2575088198
1.2540974935
1.2504373282
1.2466468996
1.2428335600
1.2390844163
1.2354644609
1.2320210160
1.2287902840
1.2258030249
1.2230891587
1.2206798903
1.2186072734
1.2169029068
1.2155958645
1.2147101260
1.2142627606
1.2154502596
1.1246234399
1.1242156972
1.1243054093
1.1244872889
1.1247656410
1.1251449395
1.1256281422
1.1262154388
1.1269033777
1.1276851323
1.1285518087
1.1294939589
1.1305026158
1.1315688781
1.1326811346
1.1338199979
1.1349527175
1.1360308614
1.1369956190
1.1377874488
1.1383214157
1.1382681556
1.2830522474
1.2842045499
1.2832784691
1.2816111376
1.2793788481
1.2767935565
1.2740913830
1.2714969647
1.2691868786
1.2672594484
1.2657184011
1.2644755376
1.2633732413
1.2622227727
1.2608467072
1.2591151506
1.2569664750
1.2544077545
1.2515004494
1.2483379425
1.2450222043
1.2416472618
1.2382906886
1.2350120783
1.2318571125
1.2288632821
1.2260649427
1.2234971498
1.2211970001
1.2192028209
1.2175523886
1.2162802828
1.2154150694
1.2149771383
1.2162818864
1.1293539694
1.1291374263
1.1292368455
1.1294376693
1.1297432782
1.1301568264
1.1306797445
1.1313108797
1.1320462311
1.1328799819
1.1338065722
1.1348227130
1.1359283543
1.1371254109
1.1384131897
1.1397805527
1.1411968235
1.1426059599
1.1439303462
1.1450835820
1.1459365503
1.1457954965
1.2814743593
1.2824652115
1.2813338757
1.2793444228
1.2766877055
1.2736076107
1.2703894939
1.2673135870
1.2646080665
1.2624115162
1.2607521616
1.2595487383
1.2586348281
1.2578012194
1.2568430709
1.2556004555
1.2539820748
1.2519678053
1.2495956167
1.2469397289
1.2440880116
1.2411255199
1.2381254051
1.2351468600
1.2322381618
1.2294412046
1.2267959483
1.2243436309
1.2221275263
1.2201920413
1.2185806791
1.2173329728
1.2164815728
1.2160498222
1.2174512173
1.1339494264
1.1339094400
1.1340184911
1.1342380139
1.1345703281
1.1350171624
1.1355784753
1.1362521692
1.1370346083
1.1379225889
1.1389163029
1.1400218528
1.1412520367
1.1426239617
1.1441522315
1.1458376900
1.1476538552
1.1495362371
1.1513836138
1.1530780197
1.1544603734
1.1542248495
1.2796677297
1.2804658964
1.2791295783
1.2768751053
1.2738716742
1.2703809310
1.2667329434
1.2632624353
1.2602491655
1.2578720055
1.2561831495
1.2551067972
1.2544652298
1.2540252713
1.2535505283
1.2528468605
1.2517898070
1.2503301546
1.2484826157
1.2463045493
1.2438736890
1.2412709580
1.2385699281
1.2358336670
1.2331163898
1.2304666476
1.2279312883
1.2255582213
1.2233967817
1.2214969813
1.2199074039
1.2186718502
1.2178264616
1.2173971062
1.2188760162
1.1382848792
1.1384025318
1.1385210028
1.1387586901
1.1391166888
1.1395951525
1.1401925621
1.1409062013
1.1417336453
1.1426758862
1.1437414312
1.1449495128
1.1463308980
1.1479245899
1.1497688074
1.1518860247
1.1542639123
1.1568373127
1.1594829654
1.1620484012
1.1643978753
1.1640819186
1.2773762633
1.2779831878
1.2764996274
1.2741394567
1.2709639505
1.2672329603
1.2633164818
1.2596016391
1.2564178577
1.2539821782
1.2523685702
1.2515047271
1.2512001604
1.2511967955
1.2512263776
1.2510609173
1.2505438853
1.2495990763
1.2482210975
1.2464543896
1.2443709567
1.2420519610
1.2395752314
1.2370107818
1.2344209485
1.2318622212
1.2293888709
1.2270554280
1.2249168063
1.2230279013
1.2214415623
1.2202050600
1.2193573541
1.2189263572
1.2204652408
1.1422345177
1.1424874727
1.1426147081
1.1428690855
1.1432501874
1.1437562079
1.1443837352
1.1451291067
1.1459909680
1.1469747178
1.1480980298
1.1493951705
1.1509186133
1.1527362420
1.1549223275
1.1575423895
1.1606339832
1.1641887510
1.1681514192
1.1724840335
1.1774648627
1.1771518821
1.2733520540
1.2738545342
1.2730021913
1.2711164857
1.2681619157
1.2644786086
1.2605210416
1.2567482959
1.2535461722
1.2511707882
1.2497169330
1.2491153315
1.2491638774
1.2495824587
1.2500752470
1.2503854850
1.2503297874
1.2498100298
1.2488054440
1.2473517553
1.2455188895
1.2433912595
1.2410532283
1.2385833376
1.2360529701
1.2335268772
1.2310666001
1.2287327745
1.2265851184
1.2246825036
1.2230811110
1.2218308098
1.2209726540
1.2205360839
1.2221190278
1.1456849341
1.1460484708
1.1461836891
1.1464530045
1.1468541134
1.1473826454
1.1480324008
1.1487975068
1.1496758588
1.1506746193
1.1518168179
1.1531461970
1.1547288550
1.1566499334
1.1590029718
1.1618723478
1.1653109347
1.1693174697
1.1738305723
1.1787965685
1.1845400817
1.1919703260
1.2095567357
1.2277955111
1.2793143875
1.2749193101
1.2729573298
1.2705150940
1.2672337141
1.2633380678
1.2592403638
1.2553923686
1.2521864848
1.2498867577
1.2485901693
1.2482211920
1.2485639094
1.2493189443
1.2501687712
1.2508350055
1.2511143075
1.2508925118
1.2501379837
1.2488808665
1.2471910427
1.2451573807
1.2428713606
1.2404202002
1.2378841483
1.2353357641
1.2328431944
1.2304723500
1.2282868111
1.2263484330
1.2247157534
1.2234403560
1.2225646575
1.2221191022
1.2237318318
1.1485477544
1.1489957907
1.1491391117
1.1494235677
1.1498448941
1.1503960011
1.1510676257
1.1518512658
1.1527434714
1.1537524595
1.1549060550
1.1562575954
1.1578886886
1.1599073477
1.1624388540
1.1656107294
1.1695346410
1.1742886743
1.1799140341
1.1864625979
1.1941793093
1.2033222421
1.2110681550
1.2284836133
1.2637256984
1.2679628820
1.2691529614
1.2683125848
1.2659376431
1.2625757879
1.2588063349
1.2551802722
1.2521514839
1.2500210349
1.2489052791
1.2487353332
1.2492936004
1.2502737367
1.2513486812
1.2522294794
1.2527018543
1.2526421409
1.2520119336
1.2508378540
1.2491903741
1.2471625968
1.2448524717
1.2423550724
1.2397586391
1.2371426551
1.2345809654
1.2321438211
1.2298977158
1.2279065357
1.2262302546
1.2249213484
1.2240229120
1.2235658991
1.2251957827
1.1507628333
1.1512687971
1.1514216623
1.1517242619
1.1521705825
1.1527510533
1.1534535133
1.1542668017
1.1551857506
1.1562187721
1.1573970204
1.1587812187
1.1604652997
1.1625754261
1.1652609484
1.1686787783
1.1729731300
1.1782505252
1.1845577314
1.1918775131
1.2001537234
1.2090592522
1.2170018524
1.2325708646
1.2583483244
1.2652622365
1.2676656915
1.2675910584
1.2657897024
1.2628739420
1.2594521498
1.2560983742
1.2532865855
1.2513340875
1.2503688575
1.2503296838
1.2510039417
1.2520879509
1.2532555435
1.2542166940
1.2547536500
1.2547381819
1.2541276260
1.2529457120
1.2512628963
1.2491753029
1.2467860032
1.2441966411
1.2415023072
1.2387884324
1.2361336687
1.2336117584
1.2312913016
1.2292374131
1.2275107259
1.2261639160
1.2252401708
1.2247705223
1.2264065632
1.1522948232
1.1528323155
1.1529971194
1.1533228551
1.1538021096
1.1544232248
1.1551714135
1.1560327759
1.1569997353
1.1580793073
1.1593031707
1.1607351101
1.1624751718
1.1646590445
1.1674484324
1.1710139478
1.1755118910
1.1810525496
1.1876647871
1.1952616827
1.2035951717
1.2120904277
1.2200330111
1.2339634481
1.2543591385
1.2630672825
1.2667617877
1.2675265230
1.2663254320
1.2638692720
1.2608066593
1.2577299315
1.2551241881
1.2533162619
1.2524437002
1.2524556134
1.2531503082
1.2542342665
1.2553896143
1.2563314122
1.2568427981
1.2567933266
1.2561366420
1.2548929256
1.2531312281
1.2509490701
1.2484531652
1.2457504599
1.2429418623
1.2401179530
1.2373615061
1.2347491272
1.2323509514
1.2302327436
1.2284552182
1.2270707340
1.2261221179
1.2256401359
1.2272729267
1.1531304183
1.1536735106
1.1538529074
1.1542073233
1.1547283399
1.1554026523
1.1562131404
1.1571430334
1.1581815113
1.1593323582
1.1606246455
1.1621206240
1.1639203034
1.1661612066
1.1690085105
1.1726372743
1.1772079376
1.1828315516
1.1895284849
1.1971808825
1.2054586706
1.2136988433
1.2215031948
1.2339354680
1.2510872099
1.2609011661
1.2657959126
1.2674376926
1.2668737407
1.2648978561
1.2622007837
1.2593935416
1.2569713210
1.2552703942
1.2544400662
1.2544440661
1.2550969059
1.2561203357
1.2572087595
1.2580848179
1.2585336954
1.2584226644
1.2577007355
1.2563832139
1.2545362512
1.2522573625
1.2496558075
1.2468429637
1.2439248795
1.2409968137
1.2381452613
1.2354493214
1.2329803402
1.2308043805
1.2289818603
1.2275644791
1.2265943851
1.2261018248
1.2277234415
1.1532768336
1.1538000441
1.1539963343
1.1543842787
1.1549548653
1.1556936205
1.1565814473
1.1575986609
1.1587305018
1.1599759077
1.1613585622
1.1629351852
1.1648006137
1.1670881614
1.1699601836
1.1735906965
1.1781411799
1.1837253747
1.1903662814
1.1979436113
1.2061083994
1.2141766532
1.2218232084
1.2332935090
1.2487574957
1.2590665924
1.2647270912
1.2670125479
1.2669575926
1.2653861138
1.2630047804
1.2604293711
1.2581578646
1.2565331273
1.2557166055
1.2556887791
1.2562827224
1.2572370757
1.2582588151
1.2590772509
1.2594781099
1.2593245998