<VTKFile type="UnstructuredGrid" version="0.1">
	<UnstructuredGrid>
		<Piece NumberOfPoints="13548" NumberOfCells="3387">
			<CellData>
				<DataArray type="Int32" Name="ghost" NumberOfComponents="1" Format="ascii">
1
1
1
1
1
1
1
1
1
1
1
1
1
1
1
1
1
1
1
1
1
1
1
1
1
1
1
1
1
1
1
1
1
1
1
1
1
1
1
1
1
1
1
1
1
1
1
1
1
1
1
1
1
1
1
1
1
1
0
0
0
0
0
0
0
0
0
0
0
0
0
0
0
0
0
0
0
0
1
1
0
0
0
0
0
0
0
0
0
0
0
0
0
0
0
0
0
0
0
0
0
0
0
0
0
0
0
0
0
0
0
0
0
1
1
0
0
0
0
0
0
0
0
0
0
0
0
0
0
0
0
0
0
0
0
1
1
0
0
0
0
0
0
0
0
0
0
0
0
0
0
0
0
0
0
0
0
0
0
0
0
0
0
0
0
0
0
0
0
0
1
1
0
0
0
0
0
0
0
0
0
0
0
0
0
0
0
0
0
0
0
0
1
1
0
0
0
0
0
0
0
0
0
0
0
0
0
0
0
0
0
0
0
0
0
0
0
0
0
0
0
0
0
0
0
0
0
1
1
0
0
0
0
0
0
0
0
0
0
0
0
0
0
0
0
0
0
0
0
1
1
0
0
0
0
0
0
0
0
0
0
0
0
0
0
0
0
0
0
0
0
0
0
0
0
0
0
0
0
0
0
0
0
0
1
1
0
0
0
0
0
0
0
0
0
0
0
0
0
0
0
0
0
0
0
0
1
1
0
0
0
0
0
0
0
0
0
0
0
0
0
0
0
0
0
0
0
0
0
0
0
0
0
0
0
0
0
0
0
0
0
1
1
0
0
0
0
0
0
0
0
0
0
0
0
0
0
0
0
0
0
0
0
1
1
0
0
0
0
0
0
0
0
0
0
0
0
0
0
0
0
0
0
0
0
0
0
0
0
0
0
0
0
0
0
0
0
0
1
1
0
0
0
0
0
0
0
0
0
0
0
0
0
0
0
0
0
0
0
0
1
1
0
0
0
0
0
0
0
0
0
0
0
0
0
0
0
0
0
0
0
0
0
0
0
0
0
0
0
0
0
0
0
0
0
1
1
0
0
0
0
0
0
0
0
0
0
0
0
0
0
0
0
0
0
0
0
1
1
0
0
0
0
0
0
0
0
0
0
0
0
0
0
0
0
0
0
0
0
0
0
0
0
0
0
0
0
0
0
0
0
0
1
1
0
0
0
0
0
0
0
0
0
0
0
0
0
0
0
0
0
0
0
0
1
1
0
0
0
0
0
0
0
0
0
0
0
0
0
0
0
0
0
0
0
0
0
0
0
0
0
0
0
0
0
0
0
0
0
1
1
0
0
0
0
0
0
0
0
0
0
0
0
0
0
0
0
0
0
0
0
1
1
0
0
0
0
0
0
0
0
0
0
0
0
0
0
0
0
0
0
0
0
0
0
0
0
0
0
0
0
0
0
0
0
0
1
1
0
0
0
0
0
0
0
0
0
0
0
0
0
0
0
0
0
0
0
0
1
1
0
0
0
0
0
0
0
0
0
0
0
0
0
0
0
0
0
0
0
0
0
0
0
0
0
0
0
0
0
0
0
0
0
1
1
0
0
0
0
0
0
0
0
0
0
0
0
0
0
0
0
0
0
0
0
1
1
0
0
0
0
0
0
0
0
0
0
0
0
0
0
0
0
0
0
0
0
0
0
0
0
0
0
0
0
0
0
0
0
0
1
1
0
0
0
0
0
0
0
0
0
0
0
0
0
0
0
0
0
0
0
0
1
1
0
0
0
0
0
0
0
0
0
0
0
0
0
0
0
0
0
0
0
0
0
0
0
0
0
0
0
0
0
0
0
0
0
1
1
0
0
0
0
0
0
0
0
0
0
0
0
0
0
0
0
0
0
0
0
1
1
0
0
0
0
0
0
0
0
0
0
0
0
0
0
0
0
0
0
0
0
0
0
0
0
0
0
0
0
0
0
0
0
0
1
1
0
0
0
0
0
0
0
0
0
0
0
0
0
0
0
0
0
0
0
0
1
1
0
0
0
0
0
0
0
0
0
0
0
0
0
0
0
0
0
0
0
0
0
0
0
0
0
0
0
0
0
0
0
0
0
1
1
0
0
0
0
0
0
0
0
0
0
0
0
0
0
0
0
0
0
0
0
1
1
0
0
0
0
0
0
0
0
0
0
0
0
0
0
0
0
0
0
0
0
0
0
0
0
0
0
0
0
0
0
0
0
0
1
1
0
0
0
0
0
0
0
0
0
0
0
0
0
0
0
0
0
0
0
0
1
1
0
0
0
0
0
0
0
0
0
0
0
0
0
0
0
0
0
0
0
0
0
0
0
0
0
0
0
0
0
0
0
0
0
1
1
0
0
0
0
0
0
0
0
0
0
0
0
0
0
0
0
0
0
0
0
1
1
0
0
0
0
0
0
0
0
0
0
0
0
0
0
0
0
0
0
0
0
0
0
0
0
0
0
0
0
0
0
0
0
0
1
1
0
0
0
0
0
0
0
0
0
0
0
0
0
0
0
0
0
0
0
0
1
1
0
0
0
0
0
0
0
0
0
0
0
0
0
0
0
0
0
0
0
0
0
0
0
0
0
0
0
0
0
0
0
0
0
1
1
0
0
0
0
0
0
0
0
0
0
0
0
0
0
0
0
0
0
0
0
1
1
0
0
0
0
0
0
0
0
0
0
0
0
0
0
0
0
0
0
0
0
0
0
0
0
0
0
0
0
0
0
0
0
0
1
1
0
0
0
0
0
0
0
0
0
0
0
0
0
0
0
0
0
0
0
0
1
1
0
0
0
0
0
0
0
0
0
0
0
0
0
0
0
0
0
0
0
0
0
0
0
0
0
0
0
0
0
0
0
0
0
1
1
0
0
0
0
0
0
0
0
0
0
0
0
0
0
0
0
0
0
0
0
1
1
0
0
0
0
0
0
0
0
0
0
0
0
0
0
0
0
0
0
0
0
0
0
0
0
0
0
0
0
0
0
0
0
0
1
1
0
0
0
0
0
0
0
0
0
0
0
0
0
0
0
0
0
0
0
0
1
1
0
0
0
0
0
0
0
0
0
0
0
0
0
0
0
0
0
0
0
0
0
0
0
0
0
0
0
0
0
0
0
0
0
1
1
0
0
0
0
0
0
0
0
0
0
0
0
0
0
0
0
0
0
0
0
1
1
0
0
0
0
0
0
0
0
0
0
0
0
0
0
0
0
0
0
0
0
0
0
0
0
0
0
0
0
0
0
0
0
0
1
1
0
0
0
0
0
0
0
0
0
0
0
0
0
0
0
0
0
0
0
0
0
1
1
0
0
0
0
0
0
0
0
0
0
0
0
0
0
0
0
0
0
0
0
0
0
0
0
0
0
0
0
0
0
0
0
0
0
1
1
0
0
0
0
0
0
0
0
0
0
0
0
0
0
0
0
0
0
0
0
0
0
0
0
0
0
0
0
0
0
0
0
0
0
0
0
0
0
0
0
0
0
0
0
0
0
0
0
0
0
0
0
0
0
0
0
0
1
1
0
0
0
0
0
0
0
0
0
0
0
0
0
0
0
0
0
0
0
0
0
0
0
0
0
0
0
0
0
0
0
0
0
0
0
0
0
0
0
0
0
0
0
0
0
0
0
0
0
0
0
0
0
0
0
0
0
1
1
0
0
0
0
0
0
0
0
0
0
0
0
0
0
0
0
0
0
0
0
0
0
0
0
0
0
0
0
0
0
0
0
0
0
0
0
0
0
0
0
0
0
0
0
0
0
0
0
0
0
0
0
0
0
0
0
0
1
1
0
0
0
0
0
0
0
0
0
0
0
0
0
0
0
0
0
0
0
0
0
0
0
0
0
0
0
0
0
0
0
0
0
0
0
0
0
0
0
0
0
0
0
0
0
0
0
0
0
0
0
0
0
0
0
0
0
1
1
0
0
0
0
0
0
0
0
0
0
0
0
0
0
0
0
0
0
0
0
0
0
0
0
0
0
0
0
0
0
0
0
0
0
0
0
0
0
0
0
0
0
0
0
0
0
0
0
0
0
0
0
0
0
0
0
0
1
1
0
0
0
0
0
0
0
0
0
0
0
0
0
0
0
0
0
0
0
0
0
0
0
0
0
0
0
0
0
0
0
0
0
0
0
0
0
0
0
0
0
0
0
0
0
0
0
0
0
0
0
0
0
0
0
0
0
1
1
0
0
0
0
0
0
0
0
0
0
0
0
0
0
0
0
0
0
0
0
0
0
0
0
0
0
0
0
0
0
0
0
0
0
0
0
0
0
0
0
0
0
0
0
0
0
0
0
0
0
0
0
0
0
0
0
0
1
1
0
0
0
0
0
0
0
0
0
0
0
0
0
0
0
0
0
0
0
0
0
0
0
0
0
0
0
0
0
0
0
0
0
0
0
0
0
0
0
0
0
0
0
0
0
0
0
0
0
0
0
0
0
0
0
0
0
1
1
0
0
0
0
0
0
0
0
0
0
0
0
0
0
0
0
0
0
0
0
0
0
0
0
0
0
0
0
0
0
0
0
0
0
0
0
0
0
0
0
0
0
0
0
0
0
0
0
0
0
0
0
0
0
0
0
0
1
1
0
0
0
0
0
0
0
0
0
0
0
0
0
0
0
0
0
0
0
0
0
0
0
0
0
0
0
0
0
0
0
0
0
0
0
0
0
0
0
0
0
0
0
0
0
0
0
0
0
0
0
0
0
0
0
0
0
1
1
0
0
0
0
0
0
0
0
0
0
0
0
0
0
0
0
0
0
0
0
0
1
1
0
0
0
0
0
0
0
0
0
0
0
0
0
0
0
0
0
0
0
0
0
0
0
0
0
0
0
0
0
0
0
0
0
0
1
1
0
0
0
0
0
0
0
0
0
0
0
0
0
0
0
0
0
0
0
0
1
1
0
0
0
0
0
0
0
0
0
0
0
0
0
0
0
0
0
0
0
0
0
0
0
0
0
0
0
0
0
0
0
0
0
1
1
0
0
0
0
0
0
0
0
0
0
0
0
0
0
0
0
0
0
0
0
1
1
0
0
0
0
0
0
0
0
0
0
0
0
0
0
0
0
0
0
0
0
0
0
0
0
0
0
0
0
0
0
0
0
0
1
1
0
0
0
0
0
0
0
0
0
0
0
0
0
0
0
0
0
0
0
0
1
1
0
0
0
0
0
0
0
0
0
0
0
0
0
0
0
0
0
0
0
0
0
0
0
0
0
0
0
0
0
0
0
0
0
1
1
0
0
0
0
0
0
0
0
0
0
0
0
0
0
0
0
0
0
0
0
1
1
0
0
0
0
0
0
0
0
0
0
0
0
0
0
0
0
0
0
0
0
0
0
0
0
0
0
0
0
0
0
0
0
0
1
1
0
0
0
0
0
0
0
0
0
0
0
0
0
0
0
0
0
0
0
0
1
1
0
0
0
0
0
0
0
0
0
0
0
0
0
0
0
0
0
0
0
0
0
0
0
0
0
0
0
0
0
0
0
0
0
1
1
0
0
0
0
0
0
0
0
0
0
0
0
0
0
0
0
0
0
0
0
1
1
0
0
0
0
0
0
0
0
0
0
0
0
0
0
0
0
0
0
0
0
0
0
0
0
0
0
0
0
0
0
0
0
0
1
1
0
0
0
0
0
0
0
0
0
0
0
0
0
0
0
0
0
0
0
0
1
1
0
0
0
0
0
0
0
0
0
0
0
0
0
0
0
0
0
0
0
0
0
0
0
0
0
0
0
0
0
0
0
0
0
1
1
0
0
0
0
0
0
0
0
0
0
0
0
0
0
0
0
0
0
0
0
1
1
0
0
0
0
0
0
0
0
0
0
0
0
0
0
0
0
0
0
0
0
0
0
0
0
0
0
0
0
0
0
0
0
0
1
1
0
0
0
0
0
0
0
0
0
0
0
0
0
0
0
0
0
0
0
0
1
1
0
0
0
0
0
0
0
0
0
0
0
0
0
0
0
0
0
0
0
0
0
0
0
0
0
0
0
0
0
0
0
0
0
1
1
0
0
0
0
0
0
0
0
0
0
0
0
0
0
0
0
0
0
0
0
1
1
0
0
0
0
0
0
0
0
0
0
0
0
0
0
0
0
0
0
0
0
0
0
0
0
0
0
0
0
0
0
0
0
0
1
1
0
0
0
0
0
0
0
0
0
0
0
0
0
0
0
0
0
0
0
0
1
1
0
0
0
0
0
0
0
0
0
0
0
0
0
0
0
0
0
0
0
0
0
0
0
0
0
0
0
0
0
0
0
0
0
1
1
0
0
0
0
0
0
0
0
0
0
0
0
0
0
0
0
0
0
0
0
1
1
0
0
0
0
0
0
0
0
0
0
0
0
0
0
0
0
0
0
0
0
0
0
0
0
0
0
0
0
0
0
0
0
0
1
1
0
0
0
0
0
0
0
0
0
0
0
0
0
0
0
0
0
0
0
0
1
1
0
0
0
0
0
0
0
0
0
0
0
0
0
0
0
0
0
0
0
0
0
0
0
0
0
0
0
0
0
0
0
0
0
1
1
0
0
0
0
0
0
0
0
0
0
0
0
0
0
0
0
0
0
0
0
1
1
0
0
0
0
0
0
0
0
0
0
0
0
0
0
0
0
0
0
0
0
0
0
0
0
0
0
0
0
0
0
0
0
0
1
1
0
0
0
0
0
0
0
0
0
0
0
0
0
0
0
0
0
0
0
0
1
1
0
0
0
0
0
0
0
0
0
0
0
0
0
0
0
0
0
0
0
0
0
0
0
0
0
0
0
0
0
0
0
0
0
1
1
0
0
0
0
0
0
0
0
0
0
0
0
0
0
0
0
0
0
0
0
1
1
0
0
0
0
0
0
0
0
0
0
0
0
0
0
0
0
0
0
0
0
0
0
0
0
0
0
0
0
0
0
0
0
0
1
1
0
0
0
0
0
0
0
0
0
0
0
0
0
0
0
0
0
0
0
0
1
1
0
0
0
0
0
0
0
0
0
0
0
0
0
0
0
0
0
0
0
0
0
0
0
0
0
0
0
0
0
0
0
0
0
1
1
0
0
0
0
0
0
0
0
0
0
0
0
0
0
0
0
0
0
0
0
1
1
0
0
0
0
0
0
0
0
0
0
0
0
0
0
0
0
0
0
0
0
0
0
0
0
0
0
0
0
0
0
0
0
0
1
1
0
0
0
0
0
0
0
0
0
0
0
0
0
0
0
0
0
0
0
0
1
1
0
0
0
0
0
0
0
0
0
0
0
0
0
0
0
0
0
0
0
0
0
0
0
0
0
0
0
0
0
0
0
0
0
1
1
0
0
0
0
0
0
0
0
0
0
0
0
0
0
0
0
0
0
0
0
1
1
0
0
0
0
0
0
0
0
0
0
0
0
0
0
0
0
0
0
0
0
0
0
0
0
0
0
0
0
0
0
0
0
0
1
1
0
0
0
0
0
0
0
0
0
0
0
0
0
0
0
0
0
0
0
0
1
1
0
0
0
0
0
0
0
0
0
0
0
0
0
0
0
0
0
0
0
0
0
0
0
0
0
0
0
0
0
0
0
0
0
1
1
1
1
1
1
1
1
1
1
1
1
1
1
1
1
1
1
1
1
1
1
1
1
1
1
1
1
1
1
1
1
1
1
1
1
1
1
1
1
1
1
1
1
1
1
1
1
1
1
1
1
1
1
1
1
1
1
				</DataArray>
				<DataArray type="Float64" Name="h" NumberOfComponents="1" Format="ascii">
1.4986868918
1.4980168544
1.4975775765
1.4967066357
1.4954215946
1.4937529597
1.4917464190
1.4894626910
1.4869742872
1.4843606131
1.4817022407
1.4790755079
1.4765490307
1.4741816307
1.4720217213
1.4701081863
1.4684714774
1.4671350952
1.4661171097
1.4654308353
1.4650853316
1.4650853316
1.0056975789
1.0071671803
1.0069508209
1.0065332936
1.0059442986
1.0052260055
1.0044296125
1.0036103449
1.0028213356
1.0021074201
1.0014999422
1.0010140530
1.0006491888
1.0003923549
1.0002231820
1.0001191193
1.0000594664
1.0000276749
1.0000119651
1.0000047876
1.0000017657
1.0000005975
1.0000001846
1.0000000517
1.0000000131
1.0000000030
1.0000000006
1.0000000001
1.0000000000
1.0000000000
1.0000000000
1.0000000000
1.0000000000
1.0000000000
1.0000000000
1.4980168544
1.4971053833
1.4965742869
1.4955314467
1.4940150735
1.4920805682
1.4897979834
1.4872482587
1.4845181197
1.4816950456
1.4788624787
1.4760958350
1.4734604668
1.4710107501
1.4687903222
1.4668335199
1.4651667663
1.4638102134
1.4627793130
1.4620854592
1.4617364686
1.4650853316
1.0071671803
1.0089054420
1.0086556574
1.0081718250
1.0074850307
1.0066401031
1.0056926420
1.0047043108
1.0037366214
1.0028441219
1.0020680271
1.0014320455
1.0009415325
1.0005860030
1.0003442488
1.0001903204
1.0000987278
1.0000479058
1.0000216737
1.0000091111
1.0000035456
1.0000012721
1.0000004189
1.0000001260
1.0000000344
1.0000000085
1.0000000019
1.0000000004
1.0000000001
1.0000000000
1.0000000000
1.0000000000
1.0000000000
1.0000000000
1.0000000000
1.4973681009
1.4963030839
1.4957439780
1.4946512636
1.4930735791
1.4910780418
1.4887448130
1.4861614276
1.4834171266
1.4805984157
1.4777854504
1.4750492965
1.4724508731
1.4700406275
1.4678590378
1.4659380840
1.4643025479
1.4629715432
1.4619599593
1.4612789716
1.4609363884
1.4641924180
1.0090307591
1.0109722300
1.0106963653
1.0101590722
1.0093894694
1.0084307042
1.0073381535
1.0061759003
1.0050113651
1.0039086163
1.0029210272
1.0020851468
1.0014174834
1.0009149960
1.0005592665
1.0003227951
1.0001754441
1.0000895392
1.0000427828
1.0000190780
1.0000079129
1.0000030415
1.0000010791
1.0000003518
1.0000001049
1.0000000284
1.0000000069
1.0000000015
1.0000000003
1.0000000001
1.0000000000
1.0000000000
1.0000000000
1.0000000000
1.0000000000
1.4960285122
1.4946714070
1.4940657585
1.4928898950
1.4912094960
1.4891111540
1.4866922683
1.4840520844
1.4812847960
1.4784758115
1.4756999499
1.4730207960
1.4704913912
1.4681550277
1.4660463124
1.4641927681
1.4626160236
1.4613331710
1.4603579958
1.4597012463
1.4593707258
1.4624506992
1.0127777082
1.0150729732
1.0147530238
1.0141244791
1.0132115002
1.0120521480
1.0106987736
1.0092169128
1.0076820134
1.0061737611
1.0047677072
1.0035258879
1.0024889366
1.0016719335
1.0010657082
1.0006428265
1.0003659495
1.0001960824
1.0000986135
1.0000464118
1.0000203772
1.0000083183
1.0000031456
1.0000010975
1.0000003518
1.0000001030
1.0000000274
1.0000000066
1.0000000014
1.0000000003
1.0000000000
1.0000000000
1.0000000000
1.0000000000
1.0000000000
1.4939284810
1.4921685259
1.4915135678
1.4902491156
1.4884584211
1.4862488386
1.4837370476
1.4810363604
1.4782479127
1.4754570844
1.4727332861
1.4701315505
1.4676953311
1.4654588082
1.4634488379
1.4616868780
1.4601901570
1.4589728899
1.4580472780
1.4574234768
1.4571093283
1.4599469491
1.0183764377
1.0210790796
1.0207116027
1.0199825983
1.0189070819
1.0175123859
1.0158412584
1.0139541540
1.0119296646
1.0098619267
1.0078529722
1.0060005475
1.0043840768
1.0030526570
1.0020198236
1.0012665767
1.0007508230
1.0004197085
1.0002206809
1.0001088489
1.0000502209
1.0000216090
1.0000086426
1.0000032015
1.0000010941
1.0000003435
1.0000000986
1.0000000257
1.0000000061
1.0000000013
1.0000000002
1.0000000000
1.0000000000
1.0000000000
1.0000000000
1.4909940150
1.4887567314
1.4880667846
1.4867389089
1.4848684097
1.4825779218
1.4799997033
1.4772599097
1.4744674576
1.4717095750
1.4690521322
1.4665428094
1.4642158164
1.4620958529
1.4602012357
1.4585464335
1.4571434243
1.4560029134
1.4551351748
1.4545497132
1.4542545523
1.4568039363
1.0256430368
1.0286878718
1.0282866058
1.0274822648
1.0262763875
1.0246791385
1.0227146815
1.0204268707
1.0178845246
1.0151846254
1.0124492419
1.0098140631
1.0074094550
1.0053382675
1.0036588581
1.0023794403
1.0014647493
1.0008516063
1.0004665897
1.0002403392
1.0001160917
1.0000524431
1.0000220900
1.0000086482
1.0000031359
1.0000010492
1.0000003224
1.0000000906
1.0000000231
1.0000000053
1.0000000011
1.0000000002
1.0000000000
1.0000000000
1.0000000000
1.4871708399
1.4844211934
1.4837243993
1.4823836498
1.4804967110
1.4781909866
1.4756057252
1.4728749866
1.4701143671
1.4674146580
1.4648412088
1.4624373493
1.4602302599
1.4582363794
1.4564658747
1.4549260988
1.4536234420
1.4525647999
1.4517584168
1.4512132977
1.4509379811
1.4531728216
1.0341750053
1.0373933947
1.0369861742
1.0361605030
1.0349016872
1.0331983659
1.0310486394
1.0284675394
1.0254964933
1.0222138692
1.0187410019
1.0152381766
1.0118870318
1.0088602088
1.0062885365
1.0042382406
1.0027062164
1.0016338542
1.0009309252
1.0004995680
1.0002519404
1.0001191212
1.0000526644
1.0000217081
1.0000083167
1.0000029512
1.0000009663
1.0000002907
1.0000000800
1.0000000200
1.0000000045
1.0000000009
1.0000000002
1.0000000000
1.0000000000
1.4824420135
1.4791822616
1.4785146428
1.4772268427
1.4754082615
1.4731783875
1.4706719416
1.4680228784
1.4653499246
1.4627478434
1.4602843916
1.4580023566
1.4559253426
1.4540640187
1.4524218710
1.4509998301
1.4497989572
1.4488224787
1.4480768652
1.4475711041
1.4473148892
1.4492241513
1.0433781578
1.0465501489
1.0461708703
1.0453909131
1.0441791644
1.0425028167
1.0403321961
1.0376469921
1.0344467961
1.0307672802
1.0266971927
1.0223887651
1.0180525075
1.0139288896
1.0102426026
1.0071556546
1.0047380886
1.0029680761
1.0017562482
1.0009800333
1.0005148300
1.0002540879
1.0001175437
1.0000508383
1.0000204997
1.0000076829
1.0000026671
1.0000008544
1.0000002515
1.0000000677
1.0000000166
1.0000000037
1.0000000007
1.0000000001
1.0000000000
1.4768342438
1.4730976021
1.4724968158
1.4713320535
1.4696748319
1.4676247208
1.4652998113
1.4628241284
1.4603135694
1.4578650941
1.4555504196
1.4534151814
1.4514831872
1.4497625586
1.4482524069
1.4469487062
1.4458480980
1.4449508199
1.4442623007
1.4437924519
1.4435532079
1.4451353983
1.0525922255
1.0555122611
1.0551919332
1.0545191322
1.0534479089
1.0519283482
1.0499084606
1.0473360223
1.0441657001
1.0403756474
1.0359917923
1.0311142646
1.0259347233
1.0207272478
1.0158053820
1.0114549478
1.0078687433
1.0051136624
1.0031398451
1.0018193981
1.0009936328
1.0005106603
1.0002465022
1.0001115135
1.0000471610
1.0000185946
1.0000068141
1.0000023132
1.0000007248
1.0000002087
1.0000000550
1.0000000132
1.0000000029
1.0000000006
1.0000000002
1.4704149786
1.4662572807
1.4657579049
1.4647819046
1.4633762229
1.4616111825
1.4595775662
1.4573793050
1.4551216683
1.4528995055
1.4507877205
1.4488366426
1.4470734394
1.4455070182
1.4441349611
1.4429504524
1.4419473217
1.4411241301
1.4404865753
1.4400470146
1.4398212980
1.4410797309
1.0612439812
1.0637677374
1.0635293615
1.0630078485
1.0621435251
1.0608752415
1.0591386391
1.0568616469
1.0539646010
1.0503711426
1.0460315858
1.0409582897
1.0352660866
1.0291966095
1.0231036218
1.0173885469
1.0124032331
1.0083661141
1.0053295759
1.0032040681
1.0018164351
1.0009701029
1.0004874022
1.0002299581
1.0001016691
1.0000420193
1.0000161900
1.0000057983
1.0000019239
1.0000005892
1.0000001659
1.0000000427
1.0000000101
1.0000000025
1.0000000009
1.4632833201
1.4587747995
1.4584059335
1.4576753465
1.4566019026
1.4552208163
1.4535874852
1.4517764832
1.4498736793
1.4479651877
1.4461255905
1.4444094669
1.4428491291
1.4414571859
1.4402328203
1.4391692461
1.4382598435
1.4375035192
1.4369081987
1.4364908732
1.4362737206
1.4372146896
1.0689456612
1.0710016252
1.0708607719
1.0705169527
1.0698951308
1.0689270598
1.0675458234
1.0656744743
1.0632179635
1.0600646897
1.0561009754
1.0512430347
1.0454885063
1.0389731052
1.0320036939
1.0250330258
1.0185620229
1.0130075678
1.0086010961
1.0053634117
1.0031531802
1.0017471166
1.0009116299
1.0004473903
1.0002061577
1.0000890131
1.0000359261
1.0000135185
1.0000047286
1.0000015325
1.0000004586
1.0000001262
1.0000000320
1.0000000088
1.0000000033
1.4555579516
1.4507766974
1.4505617280
1.4501232620
1.4494512257
1.4485430329
1.4474134269
1.4460999316
1.4446600971
1.4431629698
1.4416767515
1.4402573533
1.4389423041
1.4377501274
1.4366848873
1.4357432975
1.4349214558
1.4342213802
1.4336558371
1.4332493377
1.4330336865
1.4336681758
1.0755064461
1.0770801916
1.0770496337
1.0769001085
1.0765355566
1.0758812296
1.0748739821
1.0734441133
1.0715000159
1.0689204785
1.0655567914
1.0612511424
1.0558816938
1.0494333509
1.0420753728
1.0342020733
1.0263848102
1.0192309625
1.0132115613
1.0085481294
1.0052094277
1.0029911105
1.0016179535
1.0008239867
1.0003946385
1.0001774534
1.0000747631
1.0000294448
1.0000108122
1.0000036910
1.0000011677
1.0000003413
1.0000000927
1.0000000276
1.0000000110
1.4473683447
1.4423962845
1.4423540822
1.4422462688
1.4420346063
1.4416781778
1.4411480029
1.4404384434
1.4395702142
1.4385860394
1.4375398301
1.4364838680
1.4354594420
1.4344925473
1.4335955710
1.4327728517
1.4320271551
1.4313670443
1.4308132765
1.4304014075
1.4301772057
1.4305251730
1.0808781532
1.0819888698
1.0820843599
1.0821461056
1.0820471238
1.0817033221
1.0810575299
1.0800540384
1.0786175804
1.0766390409
1.0739667490
1.0704080529
1.0657551870
1.0598464315
1.0526626901
1.0444296608
1.0356568801
1.0270537504
1.0193312725
1.0129887253
1.0082067234
1.0048798923
1.0027326395
1.0014412835
1.0007156535
1.0003341568
1.0001464813
1.0000601651
1.0000231013
1.0000082706
1.0000027533
1.0000008501
1.0000002454
1.0000000787
1.0000000335
1.4388496810
1.4337708909
1.4339175318
1.4341735297
1.4344737659
1.4347393272
1.4348955657
1.4348886495
1.4346945700
1.4343203724
1.4337969957
1.4331670825
1.4324733935
1.4317506616
1.4310232944
1.4303079520
1.4296186016
1.4289741764
1.4284068069
1.4279670612
1.4277202217
1.4278151050
1.0850881702
1.0857715143
1.0860168971
1.0863154677
1.0864954570
1.0864584086
1.0861525208
1.0855381456
1.0845622102
1.0831405474
1.0811426656
1.0783795327
1.0746070906
1.0695618961
1.0630455312
1.0550549245
1.0459054976
1.0362565235
1.0269690794
1.0188368805
1.0123473583
1.0076028409
1.0044035196
1.0024014633
1.0012335033
1.0005964631
1.0002712145
1.0001157821
1.0000463134
1.0000173189
1.0000060399
1.0000019606
1.0000005986
1.0000002053
1.0000000925
1.4301401626
1.4250406582
1.4253908782
1.4260408395
1.4268993390
1.4278494195
1.4287687842
1.4295507653
1.4301194341
1.4304375378
1.4305049251
1.4303489258
1.4300116969
1.4295382045
1.4289688617
1.4283376173
1.4276742891
1.4270118681
1.4263969606
1.4258992292
1.4256104847
1.4255010901
1.0881942725
1.0884942232
1.0889258514
1.0895007488
1.0899849031
1.0902598268
1.0902775045
1.0900138544
1.0894388017
1.0884976601
1.0870938484
1.0850687232
1.0821871505
1.0781441681
1.0726169715
1.0653834460
1.0564894930
1.0463874048
1.0359226500
1.0261042317
1.0177672006
1.0113329992
1.0067865537
1.0038222359
1.0020271071
1.0010126536
1.0004762619
1.0002106424
1.0000874686
1.0000340337
1.0000123823
1.0000042066
1.0000013517
1.0000004927
1.0000002337
1.4213823734
1.4163503036
1.4169180929
1.4179899524
1.4194481601
1.4211363364
1.4228816248
1.4245197755
1.4259166325
1.4269837154
1.4276836803
1.4280246831
1.4280474603
1.4278093167
1.4273707165
1.4267875246
1.4261094239
1.4253862681
1.4246812746
1.4240869430
1.4237304986
1.4234783574
1.0902609110
1.0902266123
1.0908981415
1.0918065548
1.0926351403
1.0932405112
1.0935772447
1.0936356250
1.0934069878
1.0928654386
1.0919517386
1.0905508075
1.0884667217
1.0854059018
1.0809919277
1.0748457073
1.0667471467
1.0568431519
1.0457818985
1.0346199526
1.0244858608
1.0161899964
1.0100241992
1.0058261942
1.0031855461
1.0016405101
1.0007959279
1.0003636045
1.0001562136
1.0000630129
1.0000238222
1.0000084340
1.0000028390
1.0000010933
1.0000005428
1.4127242975
1.4078493928
1.4086474649
1.4101656356
1.4122575676
1.4147242606
1.4173381146
1.4198724943
1.4221301973
1.4239673903
1.4253068005
1.4261365194
1.4264969063
1.4264602471
1.4261105439
1.4255289824
1.4247875882
1.4239541835
1.4231089978
1.4223701764
1.4219117103
1.4215838290
1.0913461969
1.0910289750
1.0920180958
1.0933386851
1.0945694951
1.0955396205
1.0962059435
1.0965720345
1.0966485215
1.0964354835
1.0959091345
1.0950009502
1.0935689736
1.0913663492
1.0880250294
1.0830897405
1.0761385551
1.0670004622
1.0559970814
1.0440309613
1.0323711699
1.0222012026
1.0142175846
1.0085246886
1.0047998583
1.0025435468
1.0012699986
1.0005975589
1.0002647681
1.0001103336
1.0000431789
1.0000158663
1.0000055705
1.0000022530
1.0000011650
1.4043171183
1.3996886408
1.4007268181
1.4027088932
1.4054560953
1.4087218734
1.4122188131
1.4156537879
1.4187642726
1.4213508846
1.4232979314
1.4245759000
1.4252274693
1.4253423970
1.4250302143
1.4243986701
1.4235422834
1.4225455875
1.4215037510
1.4205616282
1.4199545170
1.4196136242
1.0914856212
1.0909338544
1.0923532796
1.0941918577
1.0959045889
1.0972941781
1.0983198999
1.0989973416
1.0993545611
1.0994148001
1.0991860846
1.0986439741
1.0977040908
1.0961842609
1.0937673100
1.0899943077
1.0843304359
1.0763448831
1.0659919086
1.0538554619
1.0411364655
1.0292735697
1.0193980532
1.0119981227
1.0069515838
1.0037849406
1.0019407246
1.0009380336
1.0004273489
1.0001833577
1.0000740104
1.0000281154
1.0000102514
1.0000043309
1.0000023211
1.3963114897
1.3920144223
1.3932972068
1.3957492460
1.3991541841
1.4032120089
1.4075706770
1.4118685393
1.4157792638
1.4190523850
1.4215395471
1.4231987724
1.4240783522
1.4242867305
1.4239585169
1.4232264325
1.4222048965
1.4209911784
1.4196901195
1.4184712247
1.4176492259
1.4173449858
1.0906568476
1.0899091016
1.0919258579
1.0944257976
1.0967321724
1.0986270412
1.1000703969
1.1010870703
1.1017211171
1.1020176300
1.1020138047
1.1017254730
1.1011236168
1.1000962781
1.0984003604
1.0956252990
1.0912072152
1.0845481435
1.0752751247
1.0635724007
1.0503762628
1.0371864467
1.0255043251
1.0162750989
1.0096987469
1.0054192794
1.0028482650
1.0014107921
1.0006589724
1.0002901789
1.0001203834
1.0000471004
1.0000177606
1.0000077964
1.0000043119
1.3888492758
1.3849590293
1.3864829286
1.3893945169
1.3934342474
1.3982431273
1.4034016050
1.4084810982
1.4130976460
1.4169586735
1.4198920670
1.4218496263
1.4228876392
1.4231321131
1.4227393044
1.4218623517
1.4206303066
1.4191464404
1.4175159548
1.4159251754
1.4147886655
1.4145528883
1.0887130957
1.0877911009
1.0906630692
1.0940274878
1.0970951475
1.0996354755
1.1016010664
1.1030200731
1.1039523391
1.1044669871
1.1046313918
1.1044999444
1.1040955091
1.1033751037
1.1021786281
1.1001745874
1.0968336373
1.0914847586
1.0835155320
1.0727176594
1.0596341486
1.0456131865
1.0323737343
1.0213151183
1.0130612557
1.0074828975
1.0040249018
1.0020385405
1.0009736607
1.0004386973
1.0001864276
1.0000748486
1.0000290685
1.0000131920
1.0000074973
1.3820519139
1.3786284501
1.3803798151
1.3837204049
1.3883427179
1.3938253743
1.3996820653
1.4054235132
1.4106188374
1.4149455317
1.4182178171
1.4203867394
1.4215168208
1.4217477317
1.4212511276
1.4201934882
1.4187109849
1.4169034845
1.4148619604
1.4127709132
1.4111609943
1.4110082306
1.0852619849
1.0841652983
1.0883189050
1.0928652571
1.0969731904
1.1003984807
1.1030654774
1.1049980997
1.1062774430
1.1070067508
1.1072918456
1.1072292514
1.1068925115
1.1063041722
1.1053873410
1.1039033773
1.1013978016
1.0972027487
1.0905661672
1.0809565049
1.0684827936
1.0541698084
1.0397539938
1.0270005243
1.0170087649
1.0099841883
1.0054886776
1.0028370801
1.0013822255
1.0006354020
1.0002757031
1.0001131862
1.0000450906
1.0000210526
1.0000122464
1.3760100054
1.3730924916
1.3750465733
1.3787644245
1.3838881052
1.3899341342
1.3963548592
1.4026110890
1.4082388870
1.4128990341
1.4164012567
1.4186992099
1.4198634639
1.4200412497
1.4194115416
1.4181454858
1.4163771536
1.4141907991
1.4116412573
1.4088723325
1.4065221649
1.4064550996
1.0794271951
1.0781312366
1.0843540911
1.0906603612
1.0963186850
1.1010383729
1.1046874698
1.1072928344
1.1089819899
1.1099190355
1.1102683742
1.1101799630
1.1097810151
1.1091565455
1.1083083876
1.1070927030
1.1051500045
1.1018673839
1.0964407599
1.0881113095
1.0765876354
1.0624748545
1.0473333925
1.0331404069
1.0214532250
1.0128949349
1.0072368986
1.0038111384
1.0018897833
1.0008839625
1.0003904390
1.0001633458
1.0000664884
1.0000317888
1.0000188558
1.3707743185
1.3683775172
1.3704993276
1.3745239754
1.3800439833
1.3865185246
1.3933484562
1.3999584991
1.4058662945
1.4107277704
1.4143548661
1.4167048684
1.4178507992
1.4179410479
1.4171542749
1.4156581482
1.4135751333
1.4109588781
1.4077954816
1.4041111052
1.4005560190
1.4005742000
1.0692723596
1.0677290948
1.0777720038
1.0870864389
1.0952572669
1.1019108916
1.1068985051
1.1103278671
1.1124465078
1.1135335275
1.1138458997
1.1136048012
1.1129966688
1.1121657406
1.1111846696
1.1099979184
1.1083453453
1.1056974002
1.1012621928
1.0941476067
1.0837389627
1.0702038407
1.0547835927
1.0394884522
1.0262494550
1.0161448272
1.0092406029
1.0049504343
1.0024933161
1.0011838204
1.0005307598
1.0002255572
1.0000934525
1.0000455515
1.0000274535
1.3663527411
1.3644661418
1.3667133339
1.3709617093
1.3767587917
1.3835151146
1.3905926214
1.3973940915
1.4034311543
1.4083629818
1.4120066874
1.4143218424
1.4153801312
1.4153270573
1.4143384238
1.4125781490
1.4101576157
1.4070938052
1.4032674728
1.3984447130
1.3929107596
1.3930230298
1.0498715532
1.0480003274
1.0670409862
1.0823734502
1.0947070296
1.1040333646
1.1105743817
1.1147780938
1.1171616306
1.1181970442
1.1182699280
1.1176854214
1.1166885221
1.1154737189
1.1141708192
1.1127983954
1.1111876483
1.1089012874
1.1051987005
1.0991301167
1.0898478675
1.0771225425
1.0618029753
1.0457717565
1.0312054601
1.0196213349
1.0114413768
1.0062267272
1.0031796885
1.0015290248
1.0006940461
1.0002987093
1.0001255223
1.0000621179
1.0000379121
1.3627162559
1.3613061609
1.3636337583
1.3680194535
1.3739731847
1.3808677695
1.3880388115
1.3948783281
1.4008988235
1.4057638475
1.4092912949
1.4114343906
1.4122525383
1.4118779180
1.4104781756
1.4082221852
1.4052494331
1.4016354043
1.3973283148
1.3919892376
1.3847853545
1.3850331423
1.0054201974
1.0030270686
1.0510885776
1.0794230803
1.0978336669
1.1098221204
1.1173008606
1.1215788978
1.1236197408
1.1241261396
1.1236000218
1.1224041883
1.1208141916
1.1190480307
1.1172675007
1.1155422774
1.1137770271
1.1116209507
1.1084023342
1.1031659872
1.0949139870
1.0830917492
1.0681470900
1.0517222107
1.0361004867
1.0231756477
1.0137515046
1.0075924873
1.0039244783
1.0019075115
1.0008745527
1.0003801594
1.0001614886
1.0000808312
1.0000498041
1.3598100907
1.3588242353
1.3611908057
1.3656358427
1.3716407456
1.3785519479
1.3856893419
1.3924408633
1.3983202110
1.4029879910
1.4062467721
1.4080156129
1.4082950429
1.4071240015
1.4045201480
1.4003988347
1.3944479939
1.3858980866
1.3730423214
1.3520886499
1.3140762044
1.2370782366
1.1385964418
1.1482575410
1.0848256625
1.0903701730
1.1038334047
1.1138200444
1.1214930491
1.1269011008
1.1302025832
1.1317238807
1.1318582370
1.1309748446
1.1293787417
1.1273157841
1.1249927827
1.1225919220
1.1202681203
1.1181136042
1.1160846741
1.1139040357
1.1109725245
1.1063613886
1.0989885073
1.0880544805
1.0736443428
1.0571053476
1.0407090099
1.0266357192
1.0160590895
1.0089823919
1.0046923028
1.0023011752
1.0010634528
1.0004657758
1.0001994284
1.0001006286
1.0000624214
1.3575659428
1.3569395721
1.3593132875
1.3637596016
1.3697411093
1.3765891110
1.3836176258
1.3902169271
1.3959047411
1.4003396535
1.4033108548
1.4047102658
1.4044979885
1.4026616068
1.3991591423
1.3938446490
1.3863641554
1.3759870829
1.3613115222
1.3396791218
1.3059086775
1.2505710979
1.1354640817
1.1456281033
1.1141807807
1.1130630796
1.1195330401
1.1261365012
1.1315936310
1.1354037133
1.1375143426
1.1381169167
1.1375073634
1.1359898329
1.1338287648
1.1312455941
1.1284331062
1.1255686904
1.1228153216
1.1202913482
1.1180009343
1.1157343919
1.1129654468
1.1088104382
1.1021515245
1.0920190708
1.0781991226
1.0617414484
1.0448257142
1.0298246030
1.0182382819
1.0103182452
1.0054390962
1.0026869723
1.0012494115
1.0005502504
1.0002368834
1.0001201603
1.0000748661
1.3559074380
1.3555691883
1.3579304673
1.3623441390
1.3682626821
1.3750115956
1.3819065407
1.3883448493
1.3938511030
1.3980849950
1.4008283296
1.4019573303
1.4014112451
1.3991573499
1.3951413187
1.3892250988
1.3811068452
1.3702019787
1.3554639693
1.3350826022
1.3059394548
1.2633668848
1.1859163214
1.1711380005
1.1447454169
1.1363206928
1.1357976778
1.1378740967
1.1403860035
1.1422747683
1.1431240686
1.1428791743
1.1416697106
1.1396927978
1.1371477161
1.1342178405
1.1310745502
1.1278857495
1.1248174680
1.1220068377
1.1194955429
1.1171296115
1.1144472172
1.1106142003
1.1045063887
1.0950436818
1.0817839882
1.0655138903
1.0482842034
1.0325790070
1.0201623196
1.0115165806
1.0061161484
1.0030389908
1.0014196379
1.0006276351
1.0002711429
1.0001379693
1.0000861832
1.3547543548
1.3546307617
1.3569716829
1.3613408780
1.3671869463
1.3738355617
1.3806079791
1.3869103176
1.3922748110
1.3963639930
1.3989564552
1.3999201958
1.3991844689
1.3967098479
1.3924447490
1.3862723526
1.3779459641
1.3669982530
1.3526207862
1.3334895704
1.3074933522
1.2717454359
1.2146190527
1.1898022673
1.1653369187
1.1530731771
1.1482331689
1.1470282587
1.1472203287
1.1475296393
1.1473255015
1.1463786417
1.1446878909
1.1423600934
1.1395364233
1.1363643684
1.1329935788
1.1295803767
1.1262894523
1.1232691244
1.1205872376
1.1181311420
1.1154895535
1.1118719643
1.1061616242
1.0972114696
1.0844184525
1.0683618372
1.0509641676
1.0347630416
1.0217162938
1.0124975157
1.0066753262
1.0033312387
1.0015612818
1.0006920145
1.0002995708
1.0001526815
1.0000954959
1.3540330606
1.3540512355
1.3563732343
1.3607032528
1.3664893638
1.3730597883
1.3797417720
1.3859490412
1.3912201505
1.3952204645
1.3977274314
1.3986049353
1.3977775046
1.3952037713
1.3908368862
1.3845767216
1.3762134897
1.3653510299
1.3513142409
1.3330327290
1.3088911784
1.2768272728
1.2303735671
1.2017673611
1.1778177637
1.1635470900
1.1562729505
1.1530515994
1.1517445284
1.1510020783
1.1500856517
1.1486629372
1.1466489317
1.1440897414
1.1410862740
1.1377605851
1.1342464673
1.1306912011
1.1272572620
1.1240991646
1.1213011644
1.1187776930
1.1161518366
1.1126648366
1.1072103010
1.0986042068
1.0861421809
1.0702623810
1.0527874512
1.0362746947
1.0228069280
1.0131930394
1.0070744976
1.0035406698
1.0016629398
1.0007381942
1.0003199071
1.0001631599
1.0001021022
1.3536877572
1.3537762832
1.3560872003
1.3603947808
1.3661475090
1.3726756598
1.3793101813
1.3854691352
1.3906945937
1.3946535977
1.3971232817
1.3979657989
1.3971037328
1.3944952073
1.3900961185
1.3838146703
1.3754584426
1.3646633344
1.3508121441
1.3329416971
1.3096442962
1.2792036387
1.2373387170
1.2075260124
1.1836686520
1.1685301158
1.1601655268
1.1559995254
1.1539701490
1.1527119101
1.1514428733
1.1497841460
1.1476105822
1.1449382260
1.1418476861
1.1384480655
1.1348649981
1.1312409963
1.1277371418
1.1245107380
1.1216539654
1.1190946444