<VTKFile type="UnstructuredGrid" version="0.1">
	<UnstructuredGrid>
		<Piece NumberOfPoints="13548" NumberOfCells="3387">
			<CellData>
				<DataArray type="Int32" Name="ghost" NumberOfComponents="1" Format="ascii">
1
1
1
1
1
1
1
1
1
1
1
1
1
1
1
1
1
1
1
1
1
1
1
1
1
1
1
1
1
1
1
1
1
1
1
1
1
1
1
1
1
1
1
1
1
1
1
1
1
1
1
1
1
1
1
1
1
1
0
0
0
0
0
0
0
0
0
0
0
0
0
0
0
0
0
0
0
0
1
1
0
0
0
0
0
0
0
0
0
0
0
0
0
0
0
0
0
0
0
0
0
0
0
0
0
0
0
0
0
0
0
0
0
1
1
0
0
0
0
0
0
0
0
0
0
0
0
0
0
0
0
0
0
0
0
1
1
0
0
0
0
0
0
0
0
0
0
0
0
0
0
0
0
0
0
0
0
0
0
0
0
0
0
0
0
0
0
0
0
0
1
1
0
0
0
0
0
0
0
0
0
0
0
0
0
0
0
0
0
0
0
0
1
1
0
0
0
0
0
0
0
0
0
0
0
0
0
0
0
0
0
0
0
0
0
0
0
0
0
0
0
0
0
0
0
0
0
1
1
0
0
0
0
0
0
0
0
0
0
0
0
0
0
0
0
0
0
0
0
1
1
0
0
0
0
0
0
0
0
0
0
0
0
0
0
0
0
0
0
0
0
0
0
0
0
0
0
0
0
0
0
0
0
0
1
1
0
0
0
0
0
0
0
0
0
0
0
0
0
0
0
0
0
0
0
0
1
1
0
0
0
0
0
0
0
0
0
0
0
0
0
0
0
0
0
0
0
0
0
0
0
0
0
0
0
0
0
0
0
0
0
1
1
0
0
0
0
0
0
0
0
0
0
0
0
0
0
0
0
0
0
0
0
1
1
0
0
0
0
0
0
0
0
0
0
0
0
0
0
0
0
0
0
0
0
0
0
0
0
0
0
0
0
0
0
0
0
0
1
1
0
0
0
0
0
0
0
0
0
0
0
0
0
0
0
0
0
0
0
0
1
1
0
0
0
0
0
0
0
0
0
0
0
0
0
0
0
0
0
0
0
0
0
0
0
0
0
0
0
0
0
0
0
0
0
1
1
0
0
0
0
0
0
0
0
0
0
0
0
0
0
0
0
0
0
0
0
1
1
0
0
0
0
0
0
0
0
0
0
0
0
0
0
0
0
0
0
0
0
0
0
0
0
0
0
0
0
0
0
0
0
0
1
1
0
0
0
0
0
0
0
0
0
0
0
0
0
0
0
0
0
0
0
0
1
1
0
0
0
0
0
0
0
0
0
0
0
0
0
0
0
0
0
0
0
0
0
0
0
0
0
0
0
0
0
0
0
0
0
1
1
0
0
0
0
0
0
0
0
0
0
0
0
0
0
0
0
0
0
0
0
1
1
0
0
0
0
0
0
0
0
0
0
0
0
0
0
0
0
0
0
0
0
0
0
0
0
0
0
0
0
0
0
0
0
0
1
1
0
0
0
0
0
0
0
0
0
0
0
0
0
0
0
0
0
0
0
0
1
1
0
0
0
0
0
0
0
0
0
0
0
0
0
0
0
0
0
0
0
0
0
0
0
0
0
0
0
0
0
0
0
0
0
1
1
0
0
0
0
0
0
0
0
0
0
0
0
0
0
0
0
0
0
0
0
1
1
0
0
0
0
0
0
0
0
0
0
0
0
0
0
0
0
0
0
0
0
0
0
0
0
0
0
0
0
0
0
0
0
0
1
1
0
0
0
0
0
0
0
0
0
0
0
0
0
0
0
0
0
0
0
0
1
1
0
0
0
0
0
0
0
0
0
0
0
0
0
0
0
0
0
0
0
0
0
0
0
0
0
0
0
0
0
0
0
0
0
1
1
0
0
0
0
0
0
0
0
0
0
0
0
0
0
0
0
0
0
0
0
1
1
0
0
0
0
0
0
0
0
0
0
0
0
0
0
0
0
0
0
0
0
0
0
0
0
0
0
0
0
0
0
0
0
0
1
1
0
0
0
0
0
0
0
0
0
0
0
0
0
0
0
0
0
0
0
0
1
1
0
0
0
0
0
0
0
0
0
0
0
0
0
0
0
0
0
0
0
0
0
0
0
0
0
0
0
0
0
0
0
0
0
1
1
0
0
0
0
0
0
0
0
0
0
0
0
0
0
0
0
0
0
0
0
1
1
0
0
0
0
0
0
0
0
0
0
0
0
0
0
0
0
0
0
0
0
0
0
0
0
0
0
0
0
0
0
0
0
0
1
1
0
0
0
0
0
0
0
0
0
0
0
0
0
0
0
0
0
0
0
0
1
1
0
0
0
0
0
0
0
0
0
0
0
0
0
0
0
0
0
0
0
0
0
0
0
0
0
0
0
0
0
0
0
0
0
1
1
0
0
0
0
0
0
0
0
0
0
0
0
0
0
0
0
0
0
0
0
1
1
0
0
0
0
0
0
0
0
0
0
0
0
0
0
0
0
0
0
0
0
0
0
0
0
0
0
0
0
0
0
0
0
0
1
1
0
0
0
0
0
0
0
0
0
0
0
0
0
0
0
0
0
0
0
0
1
1
0
0
0
0
0
0
0
0
0
0
0
0
0
0
0
0
0
0
0
0
0
0
0
0
0
0
0
0
0
0
0
0
0
1
1
0
0
0
0
0
0
0
0
0
0
0
0
0
0
0
0
0
0
0
0
1
1
0
0
0
0
0
0
0
0
0
0
0
0
0
0
0
0
0
0
0
0
0
0
0
0
0
0
0
0
0
0
0
0
0
1
1
0
0
0
0
0
0
0
0
0
0
0
0
0
0
0
0
0
0
0
0
1
1
0
0
0
0
0
0
0
0
0
0
0
0
0
0
0
0
0
0
0
0
0
0
0
0
0
0
0
0
0
0
0
0
0
1
1
0
0
0
0
0
0
0
0
0
0
0
0
0
0
0
0
0
0
0
0
1
1
0
0
0
0
0
0
0
0
0
0
0
0
0
0
0
0
0
0
0
0
0
0
0
0
0
0
0
0
0
0
0
0
0
1
1
0
0
0
0
0
0
0
0
0
0
0
0
0
0
0
0
0
0
0
0
1
1
0
0
0
0
0
0
0
0
0
0
0
0
0
0
0
0
0
0
0
0
0
0
0
0
0
0
0
0
0
0
0
0
0
1
1
0
0
0
0
0
0
0
0
0
0
0
0
0
0
0
0
0
0
0
0
1
1
0
0
0
0
0
0
0
0
0
0
0
0
0
0
0
0
0
0
0
0
0
0
0
0
0
0
0
0
0
0
0
0
0
1
1
0
0
0
0
0
0
0
0
0
0
0
0
0
0
0
0
0
0
0
0
0
1
1
0
0
0
0
0
0
0
0
0
0
0
0
0
0
0
0
0
0
0
0
0
0
0
0
0
0
0
0
0
0
0
0
0
0
1
1
0
0
0
0
0
0
0
0
0
0
0
0
0
0
0
0
0
0
0
0
0
0
0
0
0
0
0
0
0
0
0
0
0
0
0
0
0
0
0
0
0
0
0
0
0
0
0
0
0
0
0
0
0
0
0
0
0
1
1
0
0
0
0
0
0
0
0
0
0
0
0
0
0
0
0
0
0
0
0
0
0
0
0
0
0
0
0
0
0
0
0
0
0
0
0
0
0
0
0
0
0
0
0
0
0
0
0
0
0
0
0
0
0
0
0
0
1
1
0
0
0
0
0
0
0
0
0
0
0
0
0
0
0
0
0
0
0
0
0
0
0
0
0
0
0
0
0
0
0
0
0
0
0
0
0
0
0
0
0
0
0
0
0
0
0
0
0
0
0
0
0
0
0
0
0
1
1
0
0
0
0
0
0
0
0
0
0
0
0
0
0
0
0
0
0
0
0
0
0
0
0
0
0
0
0
0
0
0
0
0
0
0
0
0
0
0
0
0
0
0
0
0
0
0
0
0
0
0
0
0
0
0
0
0
1
1
0
0
0
0
0
0
0
0
0
0
0
0
0
0
0
0
0
0
0
0
0
0
0
0
0
0
0
0
0
0
0
0
0
0
0
0
0
0
0
0
0
0
0
0
0
0
0
0
0
0
0
0
0
0
0
0
0
1
1
0
0
0
0
0
0
0
0
0
0
0
0
0
0
0
0
0
0
0
0
0
0
0
0
0
0
0
0
0
0
0
0
0
0
0
0
0
0
0
0
0
0
0
0
0
0
0
0
0
0
0
0
0
0
0
0
0
1
1
0
0
0
0
0
0
0
0
0
0
0
0
0
0
0
0
0
0
0
0
0
0
0
0
0
0
0
0
0
0
0
0
0
0
0
0
0
0
0
0
0
0
0
0
0
0
0
0
0
0
0
0
0
0
0
0
0
1
1
0
0
0
0
0
0
0
0
0
0
0
0
0
0
0
0
0
0
0
0
0
0
0
0
0
0
0
0
0
0
0
0
0
0
0
0
0
0
0
0
0
0
0
0
0
0
0
0
0
0
0
0
0
0
0
0
0
1
1
0
0
0
0
0
0
0
0
0
0
0
0
0
0
0
0
0
0
0
0
0
0
0
0
0
0
0
0
0
0
0
0
0
0
0
0
0
0
0
0
0
0
0
0
0
0
0
0
0
0
0
0
0
0
0
0
0
1
1
0
0
0
0
0
0
0
0
0
0
0
0
0
0
0
0
0
0
0
0
0
0
0
0
0
0
0
0
0
0
0
0
0
0
0
0
0
0
0
0
0
0
0
0
0
0
0
0
0
0
0
0
0
0
0
0
0
1
1
0
0
0
0
0
0
0
0
0
0
0
0
0
0
0
0
0
0
0
0
0
1
1
0
0
0
0
0
0
0
0
0
0
0
0
0
0
0
0
0
0
0
0
0
0
0
0
0
0
0
0
0
0
0
0
0
0
1
1
0
0
0
0
0
0
0
0
0
0
0
0
0
0
0
0
0
0
0
0
1
1
0
0
0
0
0
0
0
0
0
0
0
0
0
0
0
0
0
0
0
0
0
0
0
0
0
0
0
0
0
0
0
0
0
1
1
0
0
0
0
0
0
0
0
0
0
0
0
0
0
0
0
0
0
0
0
1
1
0
0
0
0
0
0
0
0
0
0
0
0
0
0
0
0
0
0
0
0
0
0
0
0
0
0
0
0
0
0
0
0
0
1
1
0
0
0
0
0
0
0
0
0
0
0
0
0
0
0
0
0
0
0
0
1
1
0
0
0
0
0
0
0
0
0
0
0
0
0
0
0
0
0
0
0
0
0
0
0
0
0
0
0
0
0
0
0
0
0
1
1
0
0
0
0
0
0
0
0
0
0
0
0
0
0
0
0
0
0
0
0
1
1
0
0
0
0
0
0
0
0
0
0
0
0
0
0
0
0
0
0
0
0
0
0
0
0
0
0
0
0
0
0
0
0
0
1
1
0
0
0
0
0
0
0
0
0
0
0
0
0
0
0
0
0
0
0
0
1
1
0
0
0
0
0
0
0
0
0
0
0
0
0
0
0
0
0
0
0
0
0
0
0
0
0
0
0
0
0
0
0
0
0
1
1
0
0
0
0
0
0
0
0
0
0
0
0
0
0
0
0
0
0
0
0
1
1
0
0
0
0
0
0
0
0
0
0
0
0
0
0
0
0
0
0
0
0
0
0
0
0
0
0
0
0
0
0
0
0
0
1
1
0
0
0
0
0
0
0
0
0
0
0
0
0
0
0
0
0
0
0
0
1
1
0
0
0
0
0
0
0
0
0
0
0
0
0
0
0
0
0
0
0
0
0
0
0
0
0
0
0
0
0
0
0
0
0
1
1
0
0
0
0
0
0
0
0
0
0
0
0
0
0
0
0
0
0
0
0
1
1
0
0
0
0
0
0
0
0
0
0
0
0
0
0
0
0
0
0
0
0
0
0
0
0
0
0
0
0
0
0
0
0
0
1
1
0
0
0
0
0
0
0
0
0
0
0
0
0
0
0
0
0
0
0
0
1
1
0
0
0
0
0
0
0
0
0
0
0
0
0
0
0
0
0
0
0
0
0
0
0
0
0
0
0
0
0
0
0
0
0
1
1
0
0
0
0
0
0
0
0
0
0
0
0
0
0
0
0
0
0
0
0
1
1
0
0
0
0
0
0
0
0
0
0
0
0
0
0
0
0
0
0
0
0
0
0
0
0
0
0
0
0
0
0
0
0
0
1
1
0
0
0
0
0
0
0
0
0
0
0
0
0
0
0
0
0
0
0
0
1
1
0
0
0
0
0
0
0
0
0
0
0
0
0
0
0
0
0
0
0
0
0
0
0
0
0
0
0
0
0
0
0
0
0
1
1
0
0
0
0
0
0
0
0
0
0
0
0
0
0
0
0
0
0
0
0
1
1
0
0
0
0
0
0
0
0
0
0
0
0
0
0
0
0
0
0
0
0
0
0
0
0
0
0
0
0
0
0
0
0
0
1
1
0
0
0
0
0
0
0
0
0
0
0
0
0
0
0
0
0
0
0
0
1
1
0
0
0
0
0
0
0
0
0
0
0
0
0
0
0
0
0
0
0
0
0
0
0
0
0
0
0
0
0
0
0
0
0
1
1
0
0
0
0
0
0
0
0
0
0
0
0
0
0
0
0
0
0
0
0
1
1
0
0
0
0
0
0
0
0
0
0
0
0
0
0
0
0
0
0
0
0
0
0
0
0
0
0
0
0
0
0
0
0
0
1
1
0
0
0
0
0
0
0
0
0
0
0
0
0
0
0
0
0
0
0
0
1
1
0
0
0
0
0
0
0
0
0
0
0
0
0
0
0
0
0
0
0
0
0
0
0
0
0
0
0
0
0
0
0
0
0
1
1
0
0
0
0
0
0
0
0
0
0
0
0
0
0
0
0
0
0
0
0
1
1
0
0
0
0
0
0
0
0
0
0
0
0
0
0
0
0
0
0
0
0
0
0
0
0
0
0
0
0
0
0
0
0
0
1
1
0
0
0
0
0
0
0
0
0
0
0
0
0
0
0
0
0
0
0
0
1
1
0
0
0
0
0
0
0
0
0
0
0
0
0
0
0
0
0
0
0
0
0
0
0
0
0
0
0
0
0
0
0
0
0
1
1
0
0
0
0
0
0
0
0
0
0
0
0
0
0
0
0
0
0
0
0
1
1
0
0
0
0
0
0
0
0
0
0
0
0
0
0
0
0
0
0
0
0
0
0
0
0
0
0
0
0
0
0
0
0
0
1
1
0
0
0
0
0
0
0
0
0
0
0
0
0
0
0
0
0
0
0
0
1
1
0
0
0
0
0
0
0
0
0
0
0
0
0
0
0
0
0
0
0
0
0
0
0
0
0
0
0
0
0
0
0
0
0
1
1
0
0
0
0
0
0
0
0
0
0
0
0
0
0
0
0
0
0
0
0
1
1
0
0
0
0
0
0
0
0
0
0
0
0
0
0
0
0
0
0
0
0
0
0
0
0
0
0
0
0
0
0
0
0
0
1
1
0
0
0
0
0
0
0
0
0
0
0
0
0
0
0
0
0
0
0
0
1
1
0
0
0
0
0
0
0
0
0
0
0
0
0
0
0
0
0
0
0
0
0
0
0
0
0
0
0
0
0
0
0
0
0
1
1
1
1
1
1
1
1
1
1
1
1
1
1
1
1
1
1
1
1
1
1
1
1
1
1
1
1
1
1
1
1
1
1
1
1
1
1
1
1
1
1
1
1
1
1
1
1
1
1
1
1
1
1
1
1
1
1
				</DataArray>
				<DataArray type="Float64" Name="h" NumberOfComponents="1" Format="ascii">
1.5000000000
1.5000000000
1.5000000000
1.4999999997
1.4999999956
1.4999999622
1.4999997819
1.4999990550
1.4999967284
1.4999905812
1.4999768056
1.4999500891
1.4999045421
1.4998354466
1.4997412977
1.4996253559
1.4994960563
1.4993660628
1.4992502650
1.4991632006
1.4991164477
1.4991164477
1.0000039487
1.0000074491
1.0000065421
1.0000050488
1.0000034245
1.0000020391
1.0000010628
1.0000004825
1.0000001894
1.0000000636
1.0000000180
1.0000000042
1.0000000008
1.0000000001
1.0000000000
1.0000000000
1.0000000000
1.0000000000
1.0000000000
1.0000000000
1.0000000000
1.0000000000
1.0000000000
1.0000000000
1.0000000000
1.0000000000
1.0000000000
1.0000000000
1.0000000000
1.0000000000
1.0000000000
1.0000000000
1.0000000000
1.0000000000
1.0000000000
1.5000000000
1.5000000000
1.4999999998
1.4999999967
1.4999999702
1.4999998217
1.4999991986
1.4999971224
1.4999914076
1.4999780565
1.4999510439
1.4999029567
1.4998266763
1.4997177501
1.4995766273
1.4994099128
1.4992301439
1.4990541454
1.4989004843
1.4987865687
1.4987259076
1.4991164477
1.0000074491
1.0000135156
1.0000120116
1.0000094887
1.0000066607
1.0000041490
1.0000022871
1.0000011108
1.0000004724
1.0000001745
1.0000000554
1.0000000149
1.0000000033
1.0000000006
1.0000000001
1.0000000000
1.0000000000
1.0000000000
1.0000000000
1.0000000000
1.0000000000
1.0000000000
1.0000000000
1.0000000000
1.0000000000
1.0000000000
1.0000000000
1.0000000000
1.0000000000
1.0000000000
1.0000000000
1.0000000000
1.0000000000
1.0000000000
1.0000000000
1.5000000000
1.4999999998
1.4999999963
1.4999999672
1.4999998054
1.4999991304
1.4999968837
1.4999906808
1.4999760882
1.4999462415
1.4998923258
1.4998051918
1.4996778666
1.4995081956
1.4993006559
1.4990667467
1.4988238416
1.4985928839
1.4983955672
1.4982514502
1.4981753690
1.4986731296
1.0000195009
1.0000331533
1.0000298648
1.0000242287
1.0000176885
1.0000116004
1.0000068141
1.0000035701
1.0000016592
1.0000006792
1.0000002427
1.0000000749
1.0000000196
1.0000000043
1.0000000008
1.0000000001
1.0000000000
1.0000000000
1.0000000000
1.0000000000
1.0000000000
1.0000000000
1.0000000000
1.0000000000
1.0000000000
1.0000000000
1.0000000000
1.0000000000
1.0000000000
1.0000000000
1.0000000000
1.0000000000
1.0000000000
1.0000000000
1.0000000000
1.4999999997
1.4999999956
1.4999999623
1.4999997710
1.4999989516
1.4999961554
1.4999882555
1.4999692766
1.4999297169
1.4998570189
1.4997376649
1.4995605849
1.4993208221
1.4990221295
1.4986775761
1.4983081900
1.4979402085
1.4976017811
1.4973198773
1.4971175886
1.4970119033
1.4977146424
1.0000573848
1.0000922655
1.0000840590
1.0000697278
1.0000525908
1.0000359825
1.0000222600
1.0000123983
1.0000061848
1.0000027458
1.0000010766
1.0000003693
1.0000001095
1.0000000277
1.0000000058
1.0000000010
1.0000000001
1.0000000000
1.0000000000
1.0000000000
1.0000000000
1.0000000000
1.0000000000
1.0000000000
1.0000000000
1.0000000000
1.0000000000
1.0000000000
1.0000000000
1.0000000000
1.0000000000
1.0000000000
1.0000000000
1.0000000000
1.0000000000
1.4999999933
1.4999999545
1.4999997435
1.4999987961
1.4999954716
1.4999858187
1.4999620000
1.4999110585
1.4998151275
1.4996539573
1.4994096185
1.4990719298
1.4986426223
1.4981367013
1.4975806871
1.4970088148
1.4964585147
1.4959663472
1.4955650365
1.4952813337
1.4951344101
1.4961196239
1.0001579635
1.0002417353
1.0002223908
1.0001880521
1.0001458983
1.0001035757
1.0000670442
1.0000393995
1.0000209151
1.0000099713
1.0000042407
1.0000015960
1.0000005265
1.0000001504
1.0000000367
1.0000000075
1.0000000012
1.0000000002
1.0000000000
1.0000000000
1.0000000000
1.0000000000
1.0000000000
1.0000000000
1.0000000000
1.0000000000
1.0000000000
1.0000000000
1.0000000000
1.0000000000
1.0000000000
1.0000000000
1.0000000000
1.0000000000
1.0000000000
1.4999999328
1.4999996845
1.4999986805
1.4999949266
1.4999837139
1.4999552953
1.4998929086
1.4997724400
1.4995651450
1.4992436623
1.4987897181
1.4982005958
1.4974919592
1.4966961742
1.4958571243
1.4950238638
1.4942448737
1.4935640120
1.4930183877
1.4926372537
1.4924412374
1.4937551438
1.0004010646
1.0005861928
1.0005441165
1.0004682700
1.0003728393
1.0002738003
1.0001847443
1.0001140278
1.0000640630
1.0000325835
1.0000149117
1.0000060976
1.0000022098
1.0000007029
1.0000001939
1.0000000457
1.0000000090
1.0000000014
1.0000000002
1.0000000000
1.0000000000
1.0000000000
1.0000000000
1.0000000000
1.0000000000
1.0000000000
1.0000000000
1.0000000000
1.0000000000
1.0000000000
1.0000000000
1.0000000000
1.0000000000
1.0000000000
1.0000000000
1.4999995482
1.4999983561
1.4999945480
1.4999821897
1.4999499211
1.4998771963
1.4997331742
1.4994793356
1.4990766770
1.4984959230
1.4977271050
1.4967845795
1.4957059217
1.4945455982
1.4933661122
1.4922299217
1.4911936760
1.4903052933
1.4896034446
1.4891178597
1.4888694689
1.4905191851
1.0009400922
1.0013159052
1.0012316876
1.0010775851
1.0008790044
1.0006662234
1.0004672320
1.0003017991
1.0001786580
1.0000964213
1.0000471753
1.0000207936
1.0000081990
1.0000028683
1.0000008816
1.0000002352
1.0000000537
1.0000000103
1.0000000016
1.0000000002
1.0000000000
1.0000000000
1.0000000000
1.0000000000
1.0000000000
1.0000000000
1.0000000000
1.0000000000
1.0000000000
1.0000000000
1.0000000000
1.0000000000
1.0000000000
1.0000000000
1.0000000000
1.4999977172
1.4999931527
1.4999811880
1.4999464959
1.4998657184
1.4997015180
1.4994049257
1.4989235105
1.4982141908
1.4972564614
1.4960607618
1.4946685899
1.4931452302
1.4915683505
1.4900164994
1.4885609394
1.4872613821
1.4861652453
1.4853092983
1.4847215299
1.4844220737
1.4863746128
1.0020374860
1.0027376998
1.0025828835
1.0022952885
1.0019157481
1.0014959962
1.0010880189
1.0007333566
1.0004557820
1.0002598527
1.0001351796
1.0000638026
1.0000271523
1.0000103452
1.0000034999
1.0000010411
1.0000002691
1.0000000595
1.0000000110
1.0000000017
1.0000000002
1.0000000000
1.0000000000
1.0000000000
1.0000000000
1.0000000000
1.0000000000
1.0000000000
1.0000000000
1.0000000000
1.0000000000
1.0000000000
1.0000000000
1.0000000000
1.0000000000
1.4999907770
1.4999762809
1.4999442984
1.4998596467
1.4996810722
1.4993498737
1.4987991994
1.4979696351
1.4968265783
1.4953728730
1.4936516418
1.4917384908
1.4897274147
1.4877155801
1.4857912903
1.4840277245
1.4824815001
1.4811947716
1.4801992081
1.4795193117
1.4791738206
1.4813632599
1.0040871767
1.0052819614
1.0050215412
1.0045300744
1.0038653699
1.0031061444
1.0023389139
1.0016415249
1.0010680673
1.0006409383
1.0003529216
1.0001773816
1.0000809270
1.0000333079
1.0000122803
1.0000040229
1.0000011595
1.0000002906
1.0000000623
1.0000000112
1.0000000017
1.0000000002
1.0000000000
1.0000000000
1.0000000000
1.0000000000
1.0000000000
1.0000000000
1.0000000000
1.0000000000
1.0000000000
1.0000000000
1.0000000000
1.0000000000
1.0000000000
1.4999690035
1.4999297585
1.4998555595
1.4996732793
1.4993202348
1.4987168631
1.4977859379
1.4964751730
1.4947753230
1.4927270866
1.4904145745
1.4879485465
1.4854469535
1.4830185250
1.4807527047
1.4787169770
1.4769590176
1.4755117610
1.4743995251
1.4736424938
1.4732582067
1.4755988307
1.0075903629
1.0094497530
1.0090513822
1.0082865507
1.0072247530
1.0059701448
1.0046498207
1.0033932379
1.0023067915
1.0014530491
1.0008438129
1.0004495567
1.0002186402
1.0000965448
1.0000384718
1.0000137394
1.0000043618
1.0000012191
1.0000002964
1.0000000617
1.0000000108
1.0000000015
1.0000000002
1.0000000000
1.0000000000
1.0000000000
1.0000000000
1.0000000000
1.0000000000
1.0000000000
1.0000000000
1.0000000000
1.0000000000
1.0000000000
1.0000000000
1.4999109091
1.4998184500
1.4996666633
1.4993158992
1.4986848042
1.4976819009
1.4962352497
1.4943186694
1.4919649770
1.4892625619
1.4863379339
1.4833314704
1.4803756775
1.4775806196
1.4750279105
1.4727725636
1.4708488063
1.4692777849
1.4680754414
1.4672578630
1.4668424985
1.4692436198
1.0130448221
1.0156689593
1.0151196348
1.0140442304
1.0125079529
1.0106251411
1.0085557976
1.0064877962
1.0046030988
1.0030380432
1.0018556788
1.0010441489
1.0005388045
1.0002537825
1.0001085390
1.0000419030
1.0000145032
1.0000044641
1.0000012103
1.0000002856
1.0000000578
1.0000000098
1.0000000014
1.0000000001
1.0000000000
1.0000000000
1.0000000000
1.0000000000
1.0000000000
1.0000000000
1.0000000000
1.0000000000
1.0000000000
1.0000000000
1.0000000000
1.4997763615
1.4995836179
1.4993061187
1.4986961283
1.4976656836
1.4961298366
1.4940435402
1.4914259293
1.4883636265
1.4849949812
1.4814830984
1.4779874957
1.4746436422
1.4715527382
1.4687809441
1.4663658595
1.4643255234
1.4626681693
1.4614014465
1.4605384955
1.4600986923
1.4624767248
1.0207398759
1.0240783371
1.0234029530
1.0220496294
1.0200532817
1.0175069223
1.0145731659
1.0114817761
1.0084995124
1.0058729478
1.0037670425
1.0022327325
1.0012179024
1.0006089470
1.0002778626
1.0001151357
1.0000430732
1.0000144507
1.0000043133
1.0000011345
1.0000002599
1.0000000511
1.0000000084
1.0000000011
1.0000000001
1.0000000000
1.0000000000
1.0000000000
1.0000000000
1.0000000000
1.0000000000
1.0000000000
1.0000000000
1.0000000000
1.0000000000
1.4995013972
1.4991407818
1.4986818880
1.4977132081
1.4961614655
1.4939737623
1.4911549864
1.4877843927
1.4840065100
1.4800043961
1.4759668411
1.4720599627
1.4684109923
1.4651038696
1.4621839347
1.4596684992
1.4575582549
1.4558484579
1.4545392532
1.4536426399
1.4531828309
1.4554675427
1.0305296782
1.0343438465
1.0336130983
1.0321039183
1.0297934100
1.0267142616
1.0229804934
1.0188123598
1.0145329848
1.0105137006
1.0070776862
1.0044120720
1.0025372716
1.0013415272
1.0006498385
1.0002872352
1.0001152965
1.0000417913
1.0000135889
1.0000039327
1.0000010034
1.0000002231
1.0000000426
1.0000000068
1.0000000009
1.0000000001
1.0000000000
1.0000000000
1.0000000000
1.0000000000
1.0000000000
1.0000000000
1.0000000000
1.0000000000
1.0000000000
1.4989986395
1.4983853658
1.4976911590
1.4962723131
1.4940968398
1.4911712907
1.4875702499
1.4834410552
1.4789830442
1.4744137539
1.4699348746
1.4657072991
1.4618410039
1.4583968634
1.4553963160
1.4528351517
1.4506965085
1.4489630164
1.4476282756
1.4467053040
1.4462270352
1.4483613041
1.0417447269
1.0456632330
1.0449806735
1.0435049581
1.0411390237
1.0378289473
1.0335892670
1.0285539361
1.0230218541
1.0174452446
1.0123291728
1.0080801502
1.0048913640
1.0027271912
1.0013967570
1.0006551450
1.0002803696
1.0001089676
1.0000382525
1.0000120497
1.0000033796
1.0000008361
1.0000001803
1.0000000334
1.0000000052
1.0000000007
1.0000000001
1.0000000000
1.0000000000
1.0000000000
1.0000000000
1.0000000000
1.0000000000
1.0000000000
1.0000000000
1.4981658276
1.4972065688
1.4962352534
1.4942993742
1.4914337872
1.4877279594
1.4833396601
1.4784858572
1.4734132261
1.4683621211
1.4635354390
1.4590795477
1.4550810078
1.4515742476
1.4485553450
1.4459981131
1.4438680358
1.4421351771
1.4407872210
1.4398405149
1.4393418858
1.4412765288
1.0533704392
1.0570214515
1.0564957372
1.0552521856
1.0531201847
1.0499631431
1.0456772536
1.0402463289
1.0338348560
1.0268571120
1.0199385037
1.0137434172
1.0087540755
1.0051383943
1.0027740924
1.0013748351
1.0006238425
1.0002582618
1.0000971153
1.0000329919
1.0000100605
1.0000027328
1.0000006551
1.0000001370
1.0000000246
1.0000000037
1.0000000005
1.0000000000
1.0000000000
1.0000000000
1.0000000000
1.0000000000
1.0000000000
1.0000000000
1.0000000000
1.4969015582
1.4955060606
1.4942354774
1.4917509925
1.4881728805
1.4836889069
1.4785465996
1.4730300095
1.4674248094
1.4619841587
1.4569034312
1.4523083128
1.4482583234
1.4447596185
1.4417819974
1.4392765813
1.4371903720
1.4354800661
1.4341274004
1.4331544840
1.4326291459
1.4343161401
1.0644108097
1.0675427410
1.0672664185
1.0664096243
1.0647382400
1.0620655594
1.0581977345
1.0529595473
1.0463018200
1.0384489647
1.0299829950
1.0217498166
1.0145827412
1.0090059597
1.0051152444
1.0026696444
1.0012784767
1.0005605029
1.0002242174
1.0000814847
1.0000267600
1.0000078916
1.0000020740
1.0000004813
1.0000000975
1.0000000170
1.0000000025
1.0000000003
1.0000000000
1.0000000000
1.0000000000
1.0000000000
1.0000000000
1.0000000000
1.0000000000
1.4951235631
1.4932154226
1.4916451524
1.4886173927
1.4843463338
1.4791240274
1.4732885741
1.4671871435
1.4611379362
1.4554003611
1.4501571100
1.4455097797
1.4414887422
1.4380703271
1.4351964398
1.4327935657
1.4307880807
1.4291214082
1.4277685988
1.4267602085
1.4261951098
1.4275834005
1.0741886618
1.0767032016
1.0767544498
1.0763820057
1.0752940925
1.0732963157
1.0701642172
1.0656161354
1.0593910230
1.0514244392
1.0420541359
1.0320992580
1.0226652266
1.0147294760
1.0087932837
1.0048212856
1.0024275857
1.0011214330
1.0004743057
1.0001830685
1.0000642062
1.0000203561
1.0000057976
1.0000014722
1.0000003303
1.0000000647
1.0000000109
1.0000000016
1.0000000002
1.0000000000
1.0000000000
1.0000000000
1.0000000000
1.0000000000
1.0000000000
1.4927831113
1.4903064664
1.4884545104
1.4849190423
1.4800070616
1.4741128542
1.4676621477
1.4610618121
1.4546592828
1.4487175021
1.4434044025
1.4387957165
1.4348906387
1.4316329540
1.4289332193
1.4266894726
1.4248039127
1.4231999526
1.4218447891
1.4207805137
1.4201512297
1.4211889446
1.0824065357
1.0843093454
1.0847747951
1.0849543959
1.0844935053
1.0832243943
1.0809520427
1.0773695398
1.0720802625
1.0647402851
1.0553161735
1.0443458893
1.0329664124
1.0225498218
1.0141453736
1.0081358368
1.0042945015
1.0020814360
1.0009256917
1.0003769948
1.0001401407
1.0000473516
1.0000144677
1.0000039726
1.0000009731
1.0000002107
1.0000000399
1.0000000065
1.0000000009
1.0000000001
1.0000000000
1.0000000000
1.0000000000
1.0000000000
1.0000000000
1.4898717951
1.4867929536
1.4846892642
1.4807009115
1.4752200265
1.4687359783
1.4617574537
1.4547490601
1.4480872788
1.4420389079
1.4367568247
1.4322891617
1.4286003551
1.4255964145
1.4231504988
1.4211265236
1.4193982135
1.4178683109
1.4164950725
1.4153353337
1.4145976436
1.4152428140
1.0889978440
1.0903272960
1.0913345616
1.0921452866
1.0923316118
1.0917734723
1.0903458426
1.0877877124
1.0836689452
1.0774632796
1.0687728436
1.0576858600
1.0450646236
1.0324308774
1.0213734456
1.0128841498
1.0071140782
1.0036046713
1.0016775810
1.0007166185
1.0002803959
1.0001001713
1.0000325367
1.0000095596
1.0000025254
1.0000005954
1.0000001242
1.0000000227
1.0000000036
1.0000000005
1.0000000001
1.0000000000
1.0000000000
1.0000000000
1.0000000000
1.4864202324
1.4827253374
1.4804050600
1.4760270496
1.4700581632
1.4630738296
1.4556609329
1.4483413542
1.4415225228
1.4354768823
1.4303419185
1.4261346204
1.4227779511
1.4201314610
1.4180222780
1.4162736370
1.4147273291
1.4132643149
1.4118332890
1.4105075708
1.4095835710
1.4098220238
1.0939214362
1.0947032935
1.0964596319
1.0980294888
1.0989134919
1.0990505156
1.0984032772
1.0968004434
1.0938635668
1.0890077903
1.0815807035
1.0712049194
1.0582412734
1.0440184607
1.0304584322
1.0192298195
1.0110885334
1.0058563492
1.0028398751
1.0012655568
1.0005178793
1.0001941781
1.0000664907
1.0000207055
1.0000058346
1.0000014788
1.0000003347
1.0000000671
1.0000000118
1.0000000018
1.0000000002
1.0000000000
1.0000000000
1.0000000000
1.0000000000
1.4824911809
1.4781821401
1.4756806763
1.4709769692
1.4646025966
1.4572106368
1.4494622910
1.4419372561
1.4350764394
1.4291592567
1.4243053837
1.4204934923
1.4175940604
1.4154079918
1.4137064090
1.4122666234
1.4108982263
1.4094623818
1.4078976308
1.4062898391
1.4050454569
1.4049099369
1.0969855300
1.0972207158
1.1000756930
1.1026271760
1.1043419506
1.1052201433
1.1053124267
1.1045587256
1.1026895355
1.0991677117
1.0932304832
1.0841402540
1.0716882461
1.0567151604
1.0411338734
1.0271713668
1.0163388173
1.0089717527
1.0045159191
1.0020889868
1.0008886529
1.0003472899
1.0001243874
1.0000406928
1.0000121095
1.0000032617
1.0000007905
1.0000001712
1.0000000328
1.0000000055
1.0000000008
1.0000000001
1.0000000000
1.0000000000
1.0000000000
1.4781722701
1.4732632723
1.4706139841
1.4656458223
1.4589470831
1.4512418803
1.4432629390
1.4356484953
1.4288745147
1.4232262996
1.4187993122
1.4155217999
1.4131963774
1.4115512020
1.4102930690
1.4091528148
1.4079132188
1.4064213080
1.4046025915
1.4025370799
1.4007451397
1.4003262930
1.0976272156
1.0972951236
1.1018941456
1.1058566192
1.1087088844
1.1104969400
1.1113550202
1.1113553727
1.1103828921
1.1080303785
1.1035567193
1.0960195874
1.0847112245
1.0698315508
1.0529338307
1.0365216145
1.0228658152
1.0130237766
1.0067809259
1.0032408774
1.0014250694
1.0005766562
1.0002144287
1.0000730812
1.0000227518
1.0000064433
1.0000016518
1.0000003811
1.0000000786
1.0000000144
1.0000000023
1.0000000003
1.0000000000
1.0000000000
1.0000000000
1.4735712155
1.4680870226
1.4653210241
1.4601465927
1.4532028035
1.4452798447
1.4371796962
1.4295989319
1.4230476278
1.4178117126
1.4139506934
1.4113252546
1.4096523594
1.4085755158
1.4077357499
1.4068261016
1.4056158416
1.4039464157
1.4017202883
1.3989621382
1.3962430846
1.3956836643
1.0943847032
1.0934436958
1.1012291297
1.1075760647
1.1122314659
1.1152843721
1.1170027518
1.1176592200
1.1173586885
1.1158981332
1.1126660176
1.1066675246
1.0968387126
1.0827325197
1.0652879856
1.0469298921
1.0305325222
1.0179967767
1.0096605011
1.0047494364
1.0021469910
1.0008938770
1.0003426165
1.0001206774
1.0000389533
1.0000114826
1.0000030783
1.0000007469
1.0000001631
1.0000000318
1.0000000055
1.0000000008
1.0000000001
1.0000000000
1.0000000000
1.4688148312
1.4627907944
1.4599376294
1.4546128182
1.4475013774
1.4394551413
1.4313423494
1.4239152920
1.4177129187
1.4130106484
1.4098141109
1.4078953389
1.4068691370
1.4062906323
1.4057476076
1.4049206219
1.4035948127
1.4016268604
1.3988859595
1.3952418571
1.3910393244
1.3905110968
1.0831983615
1.0815664348
1.0968515552
1.1080224901
1.1157302942
1.1205198415
1.1231186763
1.1242032350
1.1242136216
1.1232261428
1.1208391727
1.1161254004
1.1078174148
1.0949109946
1.0776089331
1.0579264849
1.0390656534
1.0237701613
1.0131128643
1.0066035269
1.0030529037
1.0012997989
1.0005099961
1.0001842137
1.0000611229
1.0000185745
1.0000051512
1.0000012983
1.0000002960
1.0000000607
1.0000000111
1.0000000018
1.0000000003
1.0000000000
1.0000000000
1.4640520302
1.4575349027
1.4546230792
1.4492018410
1.4419972116
1.4339173572
1.4258914985
1.4187208290
1.4129616034
1.4088596017
1.4063406646
1.4050616611
1.4045177885
1.4041753571
1.4035876882
1.4024604980
1.4006579129
1.3981627977
1.3950041160
1.3911405969
1.3864041613
1.3860776379
1.0508864511
1.0483341742
1.0879894013
1.1097311478
1.1219256088
1.1283119744
1.1311659636
1.1319626666
1.1315971044
1.1304503694
1.1283467470
1.1244818119
1.1174984058
1.1059585611
1.0893217631
1.0689535597
1.0480608647
1.0301069991
1.0170147005
1.0087416317
1.0041127105
1.0017802666
1.0007103497
1.0002611922
1.0000883555
1.0000274264
1.0000077871
1.0000020149
1.0000004731
1.0000001003
1.0000000191
1.0000000032
1.0000000005
1.0000000001
1.0000000000
1.4594557341
1.4525037651
1.4495606283
1.4440944246
1.4368666538
1.4288350743
1.4209819328
1.4141462397
1.4088840388
1.4053850786
1.4034613157
1.4026171555
1.4021894620
1.4015047609
1.3999864583
1.3971655922
1.3925799990
1.3855473585
1.3747379222
1.3572757678
1.3265439188
1.2671455800
1.1928299043
1.1948219341
1.1264884410
1.1284640952
1.1367684882
1.1416926537
1.1441074896
1.1445062011
1.1435119590
1.1417399775
1.1396647014
1.1375048710
1.1350705597
1.1315893111
1.1256424903
1.1154655255
1.0998460181
1.0793812642
1.0569918859
1.0366503384
1.0211540304
1.0110466544
1.0052649231
1.0023047744
1.0009295584
1.0003455743
1.0001182781
1.0000371846
1.0000107058
1.0000028130
1.0000006718
1.0000001452
1.0000000282
1.0000000049
1.0000000008
1.0000000001
1.0000000000
1.4552176374
1.4478989124
1.4449494240
1.4394850494
1.4322972284
1.4243863437
1.4167795725
1.4103436909
1.4056214768
1.4027318967
1.4013629692
1.4008721618
1.4004697624
1.3994080119
1.3970913090
1.3930687731
1.3869223683
1.3780734705
1.3655048979
1.3473175293
1.3199106596
1.2768834822
1.1899980538
1.1922708211
1.1558821053
1.1503975343
1.1518708686
1.1533692259
1.1536595595
1.1525816711
1.1504600433
1.1477768269
1.1449845778
1.1423620713
1.1398370904
1.1367700397
1.1317995385
1.1229966618
1.1086382972
1.0885795810
1.0652696011
1.0429561159
1.0252465495
1.0133553983
1.0064229608
1.0028305135
1.0011479278
1.0004289619
1.0001475832
1.0000466501
1.0000135084
1.0000035711
1.0000008584
1.0000001867
1.0000000366
1.0000000064
1.0000000010
1.0000000002
1.0000000000
1.4515331930
1.4439221908
1.4409856672
1.4355587828
1.4284573728
1.4207170904
1.4134015937
1.4073963876
1.4032224107
1.4009229539
1.4000671514
1.3998872519
1.3995072284
1.3981589455
1.3952889356
1.3905313876
1.3835876194
1.3740581434
1.3612530264
1.3439579752
1.3200836282
1.2862450478
1.2262652282
1.2106414438
1.1820565754
1.1703813270
1.1657088577
1.1632088729
1.1609847047
1.1583239763
1.1551641341
1.1517563358
1.1484501376
1.1455206974
1.1429675344
1.1402640310
1.1361324565
1.1285748742
1.1155080412
1.0961495203
1.0724057675
1.0485937041
1.0289913510
1.0154893386
1.0074926364
1.0033121736
1.0013453655
1.0005031163
1.0001731492
1.0000547329
1.0000158454
1.0000041868
1.0000010055
1.0000002184
1.0000000427
1.0000000075
1.0000000012
1.0000000002
1.0000000000
1.4485844390
1.4407576302
1.4378443761
1.4324727023
1.4254770796
1.4179203207
1.4108933803
1.4052924193
1.4016127930
1.3998267626
1.3994011607
1.3994714488
1.3991094205
1.3975564805
1.3943193851
1.3891208433
1.3817671989
1.3719916244
1.3593065372
1.3428548542
1.3212110715
1.2920813351
1.2465876611
1.2239185512
1.1988376280
1.1841949119
1.1758457662
1.1705174955
1.1663439663
1.1623969704
1.1583849288
1.1543933134
1.1506838648
1.1475151201
1.1449308893
1.1424906124
1.1389973791
1.1324374471
1.1204940167
1.1018950041
1.0780422772
1.0531883469
1.0321042062
1.0172764349
1.0083855843
1.0037097066
1.0015055002
1.0005619398
1.0001929025
1.0000607911
1.0000175374
1.0000046153
1.0000011034
1.0000002385
1.0000000463
1.0000000080
1.0000000012
1.0000000002
1.0000000001
1.4465247839
1.4385569993
1.4356669536
1.4303474934
1.4234456833
1.4160427021
1.4092473147
1.4039602690
1.4006539623
1.3992448795
1.3991247053
1.3993639233
1.3990073695
1.3973156843
1.3938481382
1.3883939937
1.3808297722
1.3709666639
1.3584228510
1.3425128157
1.3221158286
1.2954741336
1.2575864503
1.2322924225
1.2086292263
1.1925817949
1.1822334633
1.1752050092
1.1697851792
1.1649834755
1.1603935702
1.1560034627
1.1520178412
1.1486816257
1.1460659080
1.1437890874
1.1407169910
1.1348432598
1.1237162767
1.1057383526
1.0819301122
1.0564353892
1.0343378588
1.0185654995
1.0090271515
1.0039920700
1.0016172576
1.0006020604
1.0002060012
1.0000646756
1.0000185800
1.0000048673
1.0000011578
1.0000002489
1.0000000481
1.0000000083
1.0000000013
1.0000000002
1.0000000001
1.4454657097
1.4374286238
1.4345527716
1.4292646038
1.4224175291
1.4151019505
1.4084353023
1.4033196070
1.4002136065
1.3990029800
1.3990396455
1.3993617624
1.3990035346
1.3972393721
1.3936583258
1.3880845290
1.3804286491
1.3705367536
1.3580709688
1.3424146207
1.3225702476
1.2970170999
1.2624058738
1.2362844978
1.2131213707
1.1965081876
1.1852872548
1.1774731087
1.1714555693
1.1662336884
1.1613555426
1.1567652746
1.1526401329
1.1492177976
1.1465824992
1.1443826800
1.1415182444
1.1359920851
1.1252921626
1.1076596470
1.0839117474
1.0581161693