<VTKFile type="UnstructuredGrid" version="0.1">
	<UnstructuredGrid>
		<Piece NumberOfPoints="13548" NumberOfCells="3387">
			<CellData>
				<DataArray type="Int32" Name="ghost" NumberOfComponents="1" Format="ascii">
1
1
1
1
1
1
1
1
1
1
1
1
1
1
1
1
1
1
1
1
1
1
1
1
1
1
1
1
1
1
1
1
1
1
1
1
1
1
1
1
1
1
1
1
1
1
1
1
1
1
1
1
1
1
1
1
1
1
0
0
0
0
0
0
0
0
0
0
0
0
0
0
0
0
0
0
0
0
1
1
0
0
0
0
0
0
0
0
0
0
0
0
0
0
0
0
0
0
0
0
0
0
0
0
0
0
0
0
0
0
0
0
0
1
1
0
0
0
0
0
0
0
0
0
0
0
0
0
0
0
0
0
0
0
0
1
1
0
0
0
0
0
0
0
0
0
0
0
0
0
0
0
0
0
0
0
0
0
0
0
0
0
0
0
0
0
0
0
0
0
1
1
0
0
0
0
0
0
0
0
0
0
0
0
0
0
0
0
0
0
0
0
1
1
0
0
0
0
0
0
0
0
0
0
0
0
0
0
0
0
0
0
0
0
0
0
0
0
0
0
0
0
0
0
0
0
0
1
1
0
0
0
0
0
0
0
0
0
0
0
0
0
0
0
0
0
0
0
0
1
1
0
0
0
0
0
0
0
0
0
0
0
0
0
0
0
0
0
0
0
0
0
0
0
0
0
0
0
0
0
0
0
0
0
1
1
0
0
0
0
0
0
0
0
0
0
0
0
0
0
0
0
0
0
0
0
1
1
0
0
0
0
0
0
0
0
0
0
0
0
0
0
0
0
0
0
0
0
0
0
0
0
0
0
0
0
0
0
0
0
0
1
1
0
0
0
0
0
0
0
0
0
0
0
0
0
0
0
0
0
0
0
0
1
1
0
0
0
0
0
0
0
0
0
0
0
0
0
0
0
0
0
0
0
0
0
0
0
0
0
0
0
0
0
0
0
0
0
1
1
0
0
0
0
0
0
0
0
0
0
0
0
0
0
0
0
0
0
0
0
1
1
0
0
0
0
0
0
0
0
0
0
0
0
0
0
0
0
0
0
0
0
0
0
0
0
0
0
0
0
0
0
0
0
0
1
1
0
0
0
0
0
0
0
0
0
0
0
0
0
0
0
0
0
0
0
0
1
1
0
0
0
0
0
0
0
0
0
0
0
0
0
0
0
0
0
0
0
0
0
0
0
0
0
0
0
0
0
0
0
0
0
1
1
0
0
0
0
0
0
0
0
0
0
0
0
0
0
0
0
0
0
0
0
1
1
0
0
0
0
0
0
0
0
0
0
0
0
0
0
0
0
0
0
0
0
0
0
0
0
0
0
0
0
0
0
0
0
0
1
1
0
0
0
0
0
0
0
0
0
0
0
0
0
0
0
0
0
0
0
0
1
1
0
0
0
0
0
0
0
0
0
0
0
0
0
0
0
0
0
0
0
0
0
0
0
0
0
0
0
0
0
0
0
0
0
1
1
0
0
0
0
0
0
0
0
0
0
0
0
0
0
0
0
0
0
0
0
1
1
0
0
0
0
0
0
0
0
0
0
0
0
0
0
0
0
0
0
0
0
0
0
0
0
0
0
0
0
0
0
0
0
0
1
1
0
0
0
0
0
0
0
0
0
0
0
0
0
0
0
0
0
0
0
0
1
1
0
0
0
0
0
0
0
0
0
0
0
0
0
0
0
0
0
0
0
0
0
0
0
0
0
0
0
0
0
0
0
0
0
1
1
0
0
0
0
0
0
0
0
0
0
0
0
0
0
0
0
0
0
0
0
1
1
0
0
0
0
0
0
0
0
0
0
0
0
0
0
0
0
0
0
0
0
0
0
0
0
0
0
0
0
0
0
0
0
0
1
1
0
0
0
0
0
0
0
0
0
0
0
0
0
0
0
0
0
0
0
0
1
1
0
0
0
0
0
0
0
0
0
0
0
0
0
0
0
0
0
0
0
0
0
0
0
0
0
0
0
0
0
0
0
0
0
1
1
0
0
0
0
0
0
0
0
0
0
0
0
0
0
0
0
0
0
0
0
1
1
0
0
0
0
0
0
0
0
0
0
0
0
0
0
0
0
0
0
0
0
0
0
0
0
0
0
0
0
0
0
0
0
0
1
1
0
0
0
0
0
0
0
0
0
0
0
0
0
0
0
0
0
0
0
0
1
1
0
0
0
0
0
0
0
0
0
0
0
0
0
0
0
0
0
0
0
0
0
0
0
0
0
0
0
0
0
0
0
0
0
1
1
0
0
0
0
0
0
0
0
0
0
0
0
0
0
0
0
0
0
0
0
1
1
0
0
0
0
0
0
0
0
0
0
0
0
0
0
0
0
0
0
0
0
0
0
0
0
0
0
0
0
0
0
0
0
0
1
1
0
0
0
0
0
0
0
0
0
0
0
0
0
0
0
0
0
0
0
0
1
1
0
0
0
0
0
0
0
0
0
0
0
0
0
0
0
0
0
0
0
0
0
0
0
0
0
0
0
0
0
0
0
0
0
1
1
0
0
0
0
0
0
0
0
0
0
0
0
0
0
0
0
0
0
0
0
1
1
0
0
0
0
0
0
0
0
0
0
0
0
0
0
0
0
0
0
0
0
0
0
0
0
0
0
0
0
0
0
0
0
0
1
1
0
0
0
0
0
0
0
0
0
0
0
0
0
0
0
0
0
0
0
0
1
1
0
0
0
0
0
0
0
0
0
0
0
0
0
0
0
0
0
0
0
0
0
0
0
0
0
0
0
0
0
0
0
0
0
1
1
0
0
0
0
0
0
0
0
0
0
0
0
0
0
0
0
0
0
0
0
1
1
0
0
0
0
0
0
0
0
0
0
0
0
0
0
0
0
0
0
0
0
0
0
0
0
0
0
0
0
0
0
0
0
0
1
1
0
0
0
0
0
0
0
0
0
0
0
0
0
0
0
0
0
0
0
0
1
1
0
0
0
0
0
0
0
0
0
0
0
0
0
0
0
0
0
0
0
0
0
0
0
0
0
0
0
0
0
0
0
0
0
1
1
0
0
0
0
0
0
0
0
0
0
0
0
0
0
0
0
0
0
0
0
1
1
0
0
0
0
0
0
0
0
0
0
0
0
0
0
0
0
0
0
0
0
0
0
0
0
0
0
0
0
0
0
0
0
0
1
1
0
0
0
0
0
0
0
0
0
0
0
0
0
0
0
0
0
0
0
0
1
1
0
0
0
0
0
0
0
0
0
0
0
0
0
0
0
0
0
0
0
0
0
0
0
0
0
0
0
0
0
0
0
0
0
1
1
0
0
0
0
0
0
0
0
0
0
0
0
0
0
0
0
0
0
0
0
0
1
1
0
0
0
0
0
0
0
0
0
0
0
0
0
0
0
0
0
0
0
0
0
0
0
0
0
0
0
0
0
0
0
0
0
0
1
1
0
0
0
0
0
0
0
0
0
0
0
0
0
0
0
0
0
0
0
0
0
0
0
0
0
0
0
0
0
0
0
0
0
0
0
0
0
0
0
0
0
0
0
0
0
0
0
0
0
0
0
0
0
0
0
0
0
1
1
0
0
0
0
0
0
0
0
0
0
0
0
0
0
0
0
0
0
0
0
0
0
0
0
0
0
0
0
0
0
0
0
0
0
0
0
0
0
0
0
0
0
0
0
0
0
0
0
0
0
0
0
0
0
0
0
0
1
1
0
0
0
0
0
0
0
0
0
0
0
0
0
0
0
0
0
0
0
0
0
0
0
0
0
0
0
0
0
0
0
0
0
0
0
0
0
0
0
0
0
0
0
0
0
0
0
0
0
0
0
0
0
0
0
0
0
1
1
0
0
0
0
0
0
0
0
0
0
0
0
0
0
0
0
0
0
0
0
0
0
0
0
0
0
0
0
0
0
0
0
0
0
0
0
0
0
0
0
0
0
0
0
0
0
0
0
0
0
0
0
0
0
0
0
0
1
1
0
0
0
0
0
0
0
0
0
0
0
0
0
0
0
0
0
0
0
0
0
0
0
0
0
0
0
0
0
0
0
0
0
0
0
0
0
0
0
0
0
0
0
0
0
0
0
0
0
0
0
0
0
0
0
0
0
1
1
0
0
0
0
0
0
0
0
0
0
0
0
0
0
0
0
0
0
0
0
0
0
0
0
0
0
0
0
0
0
0
0
0
0
0
0
0
0
0
0
0
0
0
0
0
0
0
0
0
0
0
0
0
0
0
0
0
1
1
0
0
0
0
0
0
0
0
0
0
0
0
0
0
0
0
0
0
0
0
0
0
0
0
0
0
0
0
0
0
0
0
0
0
0
0
0
0
0
0
0
0
0
0
0
0
0
0
0
0
0
0
0
0
0
0
0
1
1
0
0
0
0
0
0
0
0
0
0
0
0
0
0
0
0
0
0
0
0
0
0
0
0
0
0
0
0
0
0
0
0
0
0
0
0
0
0
0
0
0
0
0
0
0
0
0
0
0
0
0
0
0
0
0
0
0
1
1
0
0
0
0
0
0
0
0
0
0
0
0
0
0
0
0
0
0
0
0
0
0
0
0
0
0
0
0
0
0
0
0
0
0
0
0
0
0
0
0
0
0
0
0
0
0
0
0
0
0
0
0
0
0
0
0
0
1
1
0
0
0
0
0
0
0
0
0
0
0
0
0
0
0
0
0
0
0
0
0
0
0
0
0
0
0
0
0
0
0
0
0
0
0
0
0
0
0
0
0
0
0
0
0
0
0
0
0
0
0
0
0
0
0
0
0
1
1
0
0
0
0
0
0
0
0
0
0
0
0
0
0
0
0
0
0
0
0
0
1
1
0
0
0
0
0
0
0
0
0
0
0
0
0
0
0
0
0
0
0
0
0
0
0
0
0
0
0
0
0
0
0
0
0
0
1
1
0
0
0
0
0
0
0
0
0
0
0
0
0
0
0
0
0
0
0
0
1
1
0
0
0
0
0
0
0
0
0
0
0
0
0
0
0
0
0
0
0
0
0
0
0
0
0
0
0
0
0
0
0
0
0
1
1
0
0
0
0
0
0
0
0
0
0
0
0
0
0
0
0
0
0
0
0
1
1
0
0
0
0
0
0
0
0
0
0
0
0
0
0
0
0
0
0
0
0
0
0
0
0
0
0
0
0
0
0
0
0
0
1
1
0
0
0
0
0
0
0
0
0
0
0
0
0
0
0
0
0
0
0
0
1
1
0
0
0
0
0
0
0
0
0
0
0
0
0
0
0
0
0
0
0
0
0
0
0
0
0
0
0
0
0
0
0
0
0
1
1
0
0
0
0
0
0
0
0
0
0
0
0
0
0
0
0
0
0
0
0
1
1
0
0
0
0
0
0
0
0
0
0
0
0
0
0
0
0
0
0
0
0
0
0
0
0
0
0
0
0
0
0
0
0
0
1
1
0
0
0
0
0
0
0
0
0
0
0
0
0
0
0
0
0
0
0
0
1
1
0
0
0
0
0
0
0
0
0
0
0
0
0
0
0
0
0
0
0
0
0
0
0
0
0
0
0
0
0
0
0
0
0
1
1
0
0
0
0
0
0
0
0
0
0
0
0
0
0
0
0
0
0
0
0
1
1
0
0
0
0
0
0
0
0
0
0
0
0
0
0
0
0
0
0
0
0
0
0
0
0
0
0
0
0
0
0
0
0
0
1
1
0
0
0
0
0
0
0
0
0
0
0
0
0
0
0
0
0
0
0
0
1
1
0
0
0
0
0
0
0
0
0
0
0
0
0
0
0
0
0
0
0
0
0
0
0
0
0
0
0
0
0
0
0
0
0
1
1
0
0
0
0
0
0
0
0
0
0
0
0
0
0
0
0
0
0
0
0
1
1
0
0
0
0
0
0
0
0
0
0
0
0
0
0
0
0
0
0
0
0
0
0
0
0
0
0
0
0
0
0
0
0
0
1
1
0
0
0
0
0
0
0
0
0
0
0
0
0
0
0
0
0
0
0
0
1
1
0
0
0
0
0
0
0
0
0
0
0
0
0
0
0
0
0
0
0
0
0
0
0
0
0
0
0
0
0
0
0
0
0
1
1
0
0
0
0
0
0
0
0
0
0
0
0
0
0
0
0
0
0
0
0
1
1
0
0
0
0
0
0
0
0
0
0
0
0
0
0
0
0
0
0
0
0
0
0
0
0
0
0
0
0
0
0
0
0
0
1
1
0
0
0
0
0
0
0
0
0
0
0
0
0
0
0
0
0
0
0
0
1
1
0
0
0
0
0
0
0
0
0
0
0
0
0
0
0
0
0
0
0
0
0
0
0
0
0
0
0
0
0
0
0
0
0
1
1
0
0
0
0
0
0
0
0
0
0
0
0
0
0
0
0
0
0
0
0
1
1
0
0
0
0
0
0
0
0
0
0
0
0
0
0
0
0
0
0
0
0
0
0
0
0
0
0
0
0
0
0
0
0
0
1
1
0
0
0
0
0
0
0
0
0
0
0
0
0
0
0
0
0
0
0
0
1
1
0
0
0
0
0
0
0
0
0
0
0
0
0
0
0
0
0
0
0
0
0
0
0
0
0
0
0
0
0
0
0
0
0
1
1
0
0
0
0
0
0
0
0
0
0
0
0
0
0
0
0
0
0
0
0
1
1
0
0
0
0
0
0
0
0
0
0
0
0
0
0
0
0
0
0
0
0
0
0
0
0
0
0
0
0
0
0
0
0
0
1
1
0
0
0
0
0
0
0
0
0
0
0
0
0
0
0
0
0
0
0
0
1
1
0
0
0
0
0
0
0
0
0
0
0
0
0
0
0
0
0
0
0
0
0
0
0
0
0
0
0
0
0
0
0
0
0
1
1
0
0
0
0
0
0
0
0
0
0
0
0
0
0
0
0
0
0
0
0
1
1
0
0
0
0
0
0
0
0
0
0
0
0
0
0
0
0
0
0
0
0
0
0
0
0
0
0
0
0
0
0
0
0
0
1
1
0
0
0
0
0
0
0
0
0
0
0
0
0
0
0
0
0
0
0
0
1
1
0
0
0
0
0
0
0
0
0
0
0
0
0
0
0
0
0
0
0
0
0
0
0
0
0
0
0
0
0
0
0
0
0
1
1
0
0
0
0
0
0
0
0
0
0
0
0
0
0
0
0
0
0
0
0
1
1
0
0
0
0
0
0
0
0
0
0
0
0
0
0
0
0
0
0
0
0
0
0
0
0
0
0
0
0
0
0
0
0
0
1
1
0
0
0
0
0
0
0
0
0
0
0
0
0
0
0
0
0
0
0
0
1
1
0
0
0
0
0
0
0
0
0
0
0
0
0
0
0
0
0
0
0
0
0
0
0
0
0
0
0
0
0
0
0
0
0
1
1
0
0
0
0
0
0
0
0
0
0
0
0
0
0
0
0
0
0
0
0
1
1
0
0
0
0
0
0
0
0
0
0
0
0
0
0
0
0
0
0
0
0
0
0
0
0
0
0
0
0
0
0
0
0
0
1
1
0
0
0
0
0
0
0
0
0
0
0
0
0
0
0
0
0
0
0
0
1
1
0
0
0
0
0
0
0
0
0
0
0
0
0
0
0
0
0
0
0
0
0
0
0
0
0
0
0
0
0
0
0
0
0
1
1
1
1
1
1
1
1
1
1
1
1
1
1
1
1
1
1
1
1
1
1
1
1
1
1
1
1
1
1
1
1
1
1
1
1
1
1
1
1
1
1
1
1
1
1
1
1
1
1
1
1
1
1
1
1
1
1
				</DataArray>
				<DataArray type="Float64" Name="h" NumberOfComponents="1" Format="ascii">
1.3067078677
1.3057821557
1.3050966164
1.3037300563
1.3016928745
1.2990036710
1.2956921769
1.2918018873
1.2873918656
1.2825382295
1.2773345546
1.2718912340
1.2663350102
1.2608072713
1.2554611053
1.2504579377
1.2459617332
1.2421313985
1.2391122349
1.2370255907
1.2359591480
1.2359591480
1.1339958310
1.1331688475
1.1333909708
1.1338167139
1.1344141389
1.1351442126
1.1359670855
1.1368473220
1.1377562080
1.1386735233
1.1395900888
1.1405097084
1.1414529737
1.1424634509
1.1436141883
1.1450160586
1.1468267169
1.1492560521
1.1525654722
1.1570544911
1.1630263662
1.1707276669
1.1802642275
1.1915135314
1.2040694436
1.2172623663
1.2302742126
1.2423106706
1.2527623542
1.2612920484
1.2678238884
1.2724652054
1.2754051682
1.2768226245
1.2768226245
1.3057821557
1.3047001860
1.3039677125
1.3025125740
1.3003550156
1.2975266116
1.2940714984
1.2900473008
1.2855253878
1.2805912588
1.2753442806
1.2698967612
1.2643736092
1.2589110378
1.2536542712
1.2487550353
1.2443666919
1.2406376409
1.2377036895
1.2356784180
1.2346440580
1.2359591480
1.1331688475
1.1323174024
1.1325445484
1.1329804179
1.1335931919
1.1343439867
1.1351931776
1.1361057588
1.1370538945
1.1380190282
1.1389948883
1.1399900208
1.1410322797
1.1421757339
1.1435077708
1.1451575808
1.1473042979
1.1501799846
1.1540638298
1.1592603309
1.1660537248
1.1746361975
1.1850188890
1.1969546744
1.2099129867
1.2231424258
1.2358195255
1.2472249732
1.2568764726
1.2645731846
1.2703508422
1.2743897338
1.2769168657
1.2781259346
1.2768226245
1.3055628362
1.3044837933
1.3037545296
1.3023061818
1.3001596859
1.2973475264
1.2939148568
1.2899203175
1.2854361882
1.2805486711
1.2753575108
1.2699749253
1.2645250859
1.2591426459
1.2539703187
1.2491563368
1.2448497306
1.2411940706
1.2383203339
1.2363378498
1.2353257121
1.2366385740
1.1328370531
1.1319758683
1.1322098800
1.1326586724
1.1332891616
1.1340611944
1.1349341751
1.1358725609
1.1368484521
1.1378437134
1.1388530208
1.1398864550
1.1409740350
1.1421725846
1.1435725707
1.1453059151
1.1475528293
1.1505426854
1.1545453788
1.1598467396
1.1667021706
1.1752688128
1.1855273967
1.1972208648
1.2098419487
1.2226948623
1.2350256660
1.2461720153
1.2556771445
1.2633319318
1.2691410303
1.2732457438
1.2758378354
1.2770858094
1.2756049911
1.3051318847
1.3040580280
1.3033353436
1.3019008824
1.2997769349
1.2969977652
1.2936105053
1.2896757531
1.2852675148
1.2804732813
1.2753934235
1.2701398502
1.2648351563
1.2596108298
1.2546046014
1.2499578585
1.2458112090
1.2422988842
1.2395425577
1.2376434003
1.2366745052
1.2379830403
1.1321678042
1.1312882547
1.1315360116
1.1320106463
1.1326765128
1.1334909074
1.1344113023
1.1354011033
1.1364323110
1.1374876573
1.1385637305
1.1396736725
1.1408517770
1.1421602358
1.1436953971
1.1455941847
1.1480383099
1.1512510254
1.1554831771
1.1609838043
1.1679531525
1.1764832458
1.1865002034
1.1977309141
1.2097118322
1.2218479196
1.2335110152
1.2441440502
1.2533413321
1.2608841201
1.2667240214
1.2709318107
1.2736332201
1.2749483803
1.2731206790
1.3045054735
1.3034377108
1.3027252691
1.3013123490
1.2992232009
1.2964946540
1.2931766673
1.2893325942
1.2850388022
1.2803844423
1.2754705225
1.2704081935
1.2653174572
1.2603249587
1.2555610574
1.2511572112
1.2472419677
1.2439363056
1.2413487925
1.2395691861
1.2386622459
1.2399647199
1.1311499528
1.1302456235
1.1305140246
1.1310273976
1.1317461753
1.1326238027
1.1336148810
1.1346812950
1.1357949583
1.1369399591
1.1381157834
1.1393401370
1.1406535791
1.1421259985
1.1438618872
1.1460045642
1.1487364513
1.1522699486
1.1568264170
1.1626012549
1.1697180569
1.1781826116
1.1878528581
1.1984396733
1.2095386147
1.2206830262
1.2314042907
1.2412831281
1.2499885762
1.2573014176
1.2631139292
1.2674089199
1.2702247090
1.2716147560
1.2692899254
1.3037086670
1.3026458266
1.3019476557
1.3005646128
1.2985234235
1.2958641374
1.2926402231
1.2889183824
1.2847777342
1.2803091791
1.2756140734
1.2708020799
1.2659893835
1.2612960420
1.2568427874
1.2527484365
1.2491264484
1.2460814396
1.2437059824
1.2420760692
1.2412465384
1.2425419015
1.1297675612
1.1288352537
1.1291312518
1.1296962648
1.1304853455
1.1314467545
1.1325313116
1.1336989653
1.1349216101
1.1361852196
1.1374931722
1.1388691813
1.1403618728
1.1420507439
1.1440499303
1.1465093430
1.1496097496
1.1535464228
1.1585003163
1.1645985980
1.1718734111
1.1802343585
1.1894697966
1.1992809225
1.2093316698
1.2192921108
1.2288616920
1.2377716486
1.2457835637
1.2526957534
1.2583524998
1.2626498629
1.2655318865
1.2669759379
1.2640385645
1.3027762497
1.3017143522
1.3010348305
1.2996906353
1.2977113569
1.2951407459
1.2920362484
1.2884682575
1.2845187525
1.2802801683
1.2758536131
1.2713462596
1.2668690698
1.2625337433
1.2584493176
1.2547197013
1.2514409410
1.2486991053
1.2465689447
1.2451114076
1.2443707390
1.2456590984
1.1280003324
1.1270409806
1.1273716345
1.1280012494
1.1288778983
1.1299432800
1.1311435550
1.1324363761
1.1337937300
1.1352040204
1.1366754830
1.1382391703
1.1399533038
1.1419083611
1.1442286917
1.1470696154
1.1506062026
1.1550089413
1.1604076106
1.1668499493
1.1742696650
1.1824815378
1.1912137301
1.2001685700
1.2090816152
1.2177516990
1.2260331465
1.2338009492
1.2409170281
1.2472182310
1.2525262451
1.2566708658
1.2595131795
1.2609581456
1.2573474070
1.3017533174
1.3006849171
1.3000286631
1.2987326822
1.2968296608
1.2943673187
1.2914072962
1.2880237487
1.2843013415
1.2803335466
1.2762203685
1.2720652799
1.2679725058
1.2640436587
1.2603742589
1.2570515225
1.2541524901
1.2517434491
1.2498806115
1.2486097627
1.2479649069
1.2492481518
1.1258233354
1.1248428340
1.1252153545
1.1259226250
1.1269039597
1.1280930774
1.1294306484
1.1308717241
1.1323885106
1.1339723525
1.1356372155
1.1374226319
1.1393975867
1.1416642681
1.1443567895
1.1476332998
1.1516576356
1.1565670135
1.1624303907
1.1692092898
1.1767399558
1.1847532791
1.1929339958
1.2009980664
1.2087508570
1.2161013896
1.2230316000
1.2295385272
1.2355804054
1.2410496008
1.2457768885
1.2495610395
1.2522094817
1.2535738352
1.2493030566
1.3006944250
1.2996080935
1.2989797465
1.2977412911
1.2959285615
1.2935932783
1.2908012284
1.2876301336
1.2841669217
1.2805053890
1.2767434135
1.2729794601
1.2693095005
1.2658234612
1.2626018170
1.2597137987
1.2572165472
1.2551562359
1.2535708916
1.2524921777
1.2519452971
1.2532277386
1.1232060126
1.1222159032
1.1226377352
1.1234358847
1.1245389052
1.1258710891
1.1273668519
1.1289783817
1.1306782016
1.1324610023
1.1343471731
1.1363855868
1.1386567104
1.1412744704
1.1443812815
1.1481343138
1.1526796023
1.1581126184
1.1644340301
1.1715173801
1.1791094881
1.1868748515
1.1944747838
1.2016504213
1.2082715177
1.2143342553
1.2199154883
1.2251048323
1.2299429249
1.2343860536
1.2383032208
1.2415033009
1.2437815887
1.2449685795
1.2401373457
1.2996619458
1.2985419977
1.2979459072
1.2967736063
1.2950639431
1.2928724312
1.2902687030
1.2873336176
1.2841557551
1.2808284028
1.2774462425
1.2741014562
1.2708803672
1.2678598384
1.2651041114
1.2626636167
1.2605753324
1.2588657733
1.2575560843
1.2566659400
1.2562142954
1.2575032395
1.1201102462
1.1191282464
1.1196071649
1.1205096551
1.1217512474
1.1232453735
1.1249195376
1.1267228374
1.1286281215
1.1306336374
1.1327666097
1.1350857345
1.1376831593
1.1406838602
1.1442361916
1.1484916494
1.1535715331
1.1595220730
1.1662712501
1.1736078991
1.1812028051
1.1886747237
1.1956811258
1.2019971690
1.2075495905
1.2123992265
1.2166869339
1.2205650836
1.2241377525
1.2274245319
1.2303528027
1.2327781942
1.2345270339
1.2354462118
1.2302368497
1.2987230556
1.2975495588
1.2969894224
1.2958905056
1.2942943627
1.2922598771
1.2898600084
1.2871781469
1.2843038104
1.2813289277
1.2783439925
1.2754337914
1.2726738419
1.2701268746
1.2678400869
1.2658447456
1.2641579340
1.2627875885
1.2617400368
1.2610260602
1.2606620415
1.2619681336
1.1164873618
1.1155376873
1.1160818583
1.1171023440
1.1184991181
1.1201734401
1.1220454416
1.1240609460
1.1261929835
1.1284432685
1.1308458799
1.1334693462
1.1364171243
1.1398238839
1.1438408740
1.1486088047
1.1542177044
1.1606589291
1.1677869496
1.1753135788
1.1828501724
1.1899905014
1.1964048857
1.2019080584
1.2064758672
1.2102149940
1.2133056620
1.2159383669
1.2182620062
1.2203526271
1.2222047422
1.2237446576
1.2248627158
1.2254537826
1.2201078129
1.2979448989
1.2966939732
1.2961724669
1.2951520406
1.2936765072
1.2918075259
1.2896207062
1.2872012575
1.2846388999
1.2820234359
1.2794403640
1.2769662345
1.2746649410
1.2725843945
1.2707543450
1.2691869498
1.2678800825
1.2668246081
1.2660146240
1.2654559028
1.2651670916
1.2665042275
1.1122741754
1.1113874708
1.1120055662
1.1131578521
1.1147259623
1.1165979791
1.1186865320
1.1209340449
1.1233133566
1.1258291427
1.1285218437
1.1314692720
1.1347852430
1.1386122109
1.1431008980
1.1483762483
1.1544916124
1.1613803418
1.1688261610
1.1764748590
1.1838960699
1.1906772695
1.1965143461
1.2012642390
1.2049447916
1.2076948481
1.2097173279
1.2112239854
1.2123939001
1.2133499662
1.2141520523
1.2148045185
1.2152762621
1.2155261906
1.2103045287
1.2973890213
1.2960334019
1.2955518611
1.2946122974
1.2932602392
1.2915594179
1.2895873254
1.2874302425
1.2851774064
1.2829158815
1.2807256240
1.2786744565
1.2768142407
1.2751778216
1.2737775278
1.2726068433
1.2716454104
1.2708687325
1.2702614989
1.2698289506
1.2695981001
1.2709828120
1.1073893658
1.1066020419
1.1073034022
1.1086013318
1.1103561837
1.1124424867
1.1147657851
1.1172650705
1.1199122998
1.1227140496
1.1257159867
1.1290040226
1.1327008199
1.1369543236
1.1419112926
1.1476766020
1.1542632346
1.1615462039
1.1692444077
1.1769506021
1.1842097987
1.1906186611
1.1959074338
1.1999758479
1.2028781478
1.2047767644
1.2058879960
1.2064353976
1.2066183484
1.2065962674
1.2064843976
1.2063569329
1.2062559759
1.2062019418
1.2013403034
1.2971053651
1.2956151427
1.2951733583
1.2943139155
1.2930834736
1.2915470891
1.2897833450
1.2878788728
1.2859218423
1.2839961632
1.2821760001
1.2805203425
1.2790690626
1.2778401645
1.2768290206
1.2760112122
1.2753492844
1.2748050351
1.2743564630
1.2740131100
1.2738179394
1.2752681994
1.1017306205
1.1010833429
1.1018781872
1.1033353399
1.1052910322
1.1076070552
1.1101831727
1.1129550648
1.1158926837
1.1190027114
1.1223340947
1.1259789245
1.1300666664
1.1347482705
1.1401634454
1.1463938364
1.1534104462
1.1610323388
1.1689219027
1.1766325555
1.1837000334
1.1897421895
1.1945291571
1.1980028964
1.2002501362
1.2014523356
1.2018350617
1.2016292008
1.2010477153
1.2002757827
1.1994684726
1.1987505964
1.1982175320
1.1979345681
1.1936081897
1.2971263198
1.2954698392
1.2950659971
1.2942827268
1.2931672429
1.2917851961
1.2902155052
1.2885445001
1.2868588246
1.2852390205
1.2837535056
1.2824527139
1.2813650209
1.2804942882
1.2798198179
1.2793003315
1.2788824173
1.2785154895
1.2781730709
1.2778739202
1.2776864294
1.2792199518
1.0951728367
1.0947078033
1.0956078348
1.0972374164
1.0994063979
1.1019666930
1.1048149278
1.1078837806
1.1111394511
1.1145859213
1.1182724109
1.1222943921
1.1267855703
1.1318974132
1.1377601707
1.1444305711
1.1518381951
1.1597508802
1.1677842986
1.1754658445
1.1823349733
1.1880395128
1.1923925800
1.1953772049
1.1971098961
1.1977888409
1.1976471746
1.1969204897
1.1958293659
1.1945731765
1.1933285926
1.1922473016
1.1914523653
1.1910319675
1.1873388551
1.2974621199
1.2956070572
1.2952378327
1.2945237931
1.2935121813
1.2922685759
1.2908715517
1.2894065793
1.2879584450
1.2866042916
1.2854070935
1.2844093494
1.2836288416
1.2830564210
1.2826565771
1.2823724000
1.2821355049
1.2818836014
1.2815869693
1.2812782061
1.2810631482
1.2826954061
1.0875707681
1.0873275937
1.0883473929
1.0901625543
1.0925557688
1.0953752504
1.0985190069
1.1019171526
1.1055293928
1.1093527428
1.1134322383
1.1178628304
1.1227793659
1.1283315114
1.1346385869
1.1417323580
1.1495035643
1.1576752675
1.1658267642
1.1734715514
1.1801632377
1.1855856385
1.1895961114
1.1922170641
1.1935923850
1.1939350673
1.1934840267
1.1924763135
1.1911333555
1.1896567696
1.1882271958
1.1870012600
1.1861068078
1.1856356721
1.1825991119
1.2980983643
1.2960129998
1.2956737980
1.2950195498
1.2940970767
1.2929713146
1.2917199169
1.2904270408
1.2891753971
1.2880388433
1.2870754144
1.2863205643
1.2857827175
1.2854411966
1.2852472157
1.2851295354
1.2850054445
1.2848006414
1.2844817829
1.2840989953
1.2838109730
1.2855531909
1.0787667009
1.0787771525
1.0799371121
1.0819521201
1.0845801477
1.0876770371
1.0911490900
1.0949240700
1.0989507410
1.1032126783
1.1077442660
1.1126346470
1.1180161799
1.1240347656
1.1307984662
1.1383157022
1.1464426309
1.1548649992
1.1631357698
1.1707649256
1.1773281068
1.1825487584
1.1863281995
1.1887257529
1.1899096967
1.1901049515
1.1895529923
1.1884875941
1.1871235914
1.1856540264
1.1842495360
1.1830558880
1.1821903456
1.1817361058
1.1793206584
1.2989958730
1.2966506553
1.2963359456
1.2957302297
1.2948795497
1.2938477402
1.2927110685
1.2915520273
1.2904511263
1.2894791507
1.2886898284
1.2881126341
1.2877480882
1.2875656909
1.2875050645
1.2874818724
1.2873992039
1.2871690783
1.2867516930
1.2862163118
1.2857942803
1.2876517565
1.0686019331
1.0688842650
1.0702170381
1.0724509491
1.0753281558
1.0787309302
1.0825831943
1.0868092462
1.0913393910
1.0961339719
1.1012076181
1.1066368814
1.1125477175
1.1190810240
1.1263346873
1.1342970239
1.1427951118
1.1514851402
1.1599028004
1.1675628842
1.1740685259
1.1791844207
1.1828542278
1.1851707990
1.1863228408
1.1865430671
1.1860709646
1.1851315570
1.1839263507
1.1826319299
1.1814004350
1.1803585289
1.1796058320
1.1792117939
1.1773444792
1.3000932213
1.2974626546
1.2971663433
1.2965968276
1.2957991069
1.2948355724
1.2937807550
1.2927152278
1.2917172470
1.2908547928
1.2901779758
1.2897114269
1.2894492971
1.2893530353
1.2893523343
1.2893507602
1.2892366222
1.2889048209
1.2883026151
1.2875157312
1.2868728936
1.2888438976
1.0569334591
1.0574879867
1.0590513892
1.0615358603
1.0646897128
1.0684504515
1.0727699538
1.0775640017
1.0827315659
1.0881953560
1.0939383060
1.1000166792
1.1065467393
1.1136646919
1.1214612057
1.1299093511
1.1388134462
1.1478075654
1.1564177458
1.1641697692
1.1706975908
1.1758071656
1.1794818536
1.1818439657
1.1830980504
1.1834799027
1.1832222744
1.1825366792
1.1816067252
1.1805885506
1.1796127903
1.1787851862
1.1781870002
1.1778739176
1.1764640970
1.3013120146
1.2983767487
1.2980925314
1.2975465124
1.2967824769
1.2958611421
1.2948550641
1.2938427340
1.2929001620
1.2920928171
1.2914678799
1.2910462476
1.2908171822
1.2907357468
1.2907231581
1.2906714691
1.2904527327
1.2899390709
1.2890529973
1.2878854952
1.2868907279
1.2889660996
1.0436457882
1.0444539797
1.0463555414
1.0491493236
1.0526387403
1.0568566601
1.0617894293
1.0673302468
1.0733255331
1.0796408951
1.0862141788
1.0930749327
1.1003291530
1.1081116843
1.1165115152
1.1254929657
1.1348443139
1.1441841443
1.1530347436
1.1609370348
1.1675573980
1.1727419735
1.1765107045
1.1790112151
1.1804594931
1.1810902020
1.1811256513
1.1807609176
1.1801598860
1.1794578220
1.1787648978
1.1781681620
1.1777333238
1.1775048617
1.1764595045
1.3025636138
1.2993125590
1.2990341838
1.2984991076
1.2977498091
1.2968452035
1.2958557380
1.2948577495
1.2939250686
1.2931209632
1.2924903417
1.2920513908
1.2917898033
1.2916556630
1.2915627557
1.2913915681
1.2909952909
1.2902148975
1.2889287316
1.2872054159
1.2856475827
1.2878111065
1.0286328861
1.0296619634
1.0321070182
1.0353256967
1.0392799534
1.0441440883
1.0499296631
1.0564765839
1.0635477401
1.0709302247
1.0785069658
1.0862804432
1.0943520256
1.1028635160
1.1119110289
1.1214581069
1.1312835732
1.1409958290
1.1501174074
1.1582066648
1.1649626970
1.1702701746
1.1741825693
1.1768692105
1.1785540281
1.1794676076
1.1798197717
1.1797882827
1.1795177841
1.1791245826
1.1787015436
1.1783209287
1.1780368547
1.1778858209
1.1771192415
1.3037565436
1.3001887556
1.2999101424
1.2993738287
1.2986209554
1.2977085849
1.2967050054
1.2956844088
1.2947185756
1.2938689183
1.2931787322
1.2926644658
1.2923094228
1.2920598367
1.2918225958
1.2914656949
1.2908193631
1.2896816715
1.2878566897
1.2853323312
1.2828491960
1.2850785915
1.0116888842
1.0129031576
1.0163011379
1.0201943351
1.0249034831
1.0307694387
1.0377834842
1.0456813822
1.0541097558
1.0627658484
1.0714821993
1.0802473674
1.0891739379
1.0984253835
1.1081168480
1.1182196469
1.1285085806
1.1385850975
1.1479737051
1.1562506045
1.1631467414
1.1685832878
1.1726444772
1.1755185106
1.1774348947
1.1786185774
1.1792663826
1.1795394099
1.1795648799
1.1794430189
1.1792530342
1.1790563432
1.1788991513
1.1788128312
1.1782516732
1.3048045038
1.3009305315
1.3006457076
1.3000961958
1.2993217738
1.2983776060
1.2973297723
1.2962503235
1.2952091156
1.2942660610
1.2934635588
1.2928174230
1.2923099662
1.2918849593
1.2914430367
1.2908383726
1.2898726135
1.2882848505
1.2857597134
1.2820894301
1.2780200563
1.2802884139
0.9920631643
0.9934431937
0.9987436125
1.0039640147
1.0101012455
1.0176132465
1.0263907110
1.0360242085
1.0460435337
1.0560808584
1.0659526696
1.0756670718
1.0853752405
1.0952819450
1.1055338728
1.1161167677
1.1268037463
1.1371891700
1.1467982465
1.1552231633
1.1622244416
1.1677571311
1.1719335322
1.1749584390
1.1770654369
1.1784732893
1.1793662917
1.1798903079
1.1801573716
1.1802544782
1.1802503650
1.1801987794
1.1801408203
1.1801048320
1.1796896367
1.3056342578
1.3014767359
1.3011796538
1.3006047765
1.2997903742
1.2987894735
1.2976656085
1.2964883021
1.2953251151
1.2942342502
1.2932574173
1.2924106619
1.2916771008
1.2910009762
1.2902804518
1.2893593461
1.2880105276
1.2859001992
1.2825326744
1.2772859419
1.2703698691
1.2726477696
0.9665766248
0.9681537633
0.9785590937
0.9871555867
0.9962198524
1.0063810509
1.0174942249
1.0290969355
1.0407032786
1.0519723116
1.0627766182
1.0731941831
1.0834460392
1.0937948503
1.1044253655
1.1153377404
1.1262995899
1.1368929177
1.1466383729
1.1551393993
1.1621819239
1.1677511980
1.1719845335
1.1751011735
1.1773377163
1.1789067354
1.1799809216
1.1806925460
1.1811405711
1.1814011282
1.1815348881
1.1815901564
1.1816047939
1.1816054670
1.1812900304
1.3061944310
1.3017878364
1.3014724459
1.3008598990
1.2999865240
1.2989024604
1.2976675274
1.2963470263
1.2950038476
1.2936912984
1.2924463743
1.2912805462
1.2901726385
1.2890634942
1.2878494043
1.2863757459
1.2844223495
1.2816577339
1.2775100930
1.2708455288
1.2595888084
1.2618512159
0.9209107568
0.9228463181
0.9542371373
0.9723740407
0.9868713562
1.0005019582
1.0139247208
1.0270536535
1.0396338260
1.0514938130
1.0626379722
1.0732474498
1.0836212921
1.0940746747
1.1048188782
1.1158549276
1.1269316383
1.1376069769
1.1473874841
1.1558802495
1.1628905197
1.1684289216
1.1726542176
1.1757979112
1.1780987760
1.1797635040
1.1809543305
1.1817915941
1.1823630597
1.1827358587
1.1829643011
1.1830926966
1.1831567979
1.1831823692
1.1829318951
1.3064645781
1.3018541147
1.3015153807
1.3008548242
1.2999062258
1.2987157316
1.2973375583
1.2958296657
1.2942451230
1.2926237865
1.2909835769
1.2893067046
1.2875242745
1.2854957195
1.2829720305
1.2795314245
1.2744496068
1.2664096151
1.2528186696
1.2280459351
1.1784444309
1.0656845254
0.8982825974
0.9473556365
0.9879017490
0.9819524602
0.9871095282
0.9924963158
1.0002430411
1.0100555443
1.0211349129
1.0326889225
1.0441241571
1.0551073887
1.0655661184
1.0756465018
1.0856316708
1.0958248412
1.1064193652
1.1173863924
1.1284345558
1.1390828035
1.1488128568
1.1572274392
1.1641448284
1.1695961511
1.1737582291
1.1768729890
1.1791809843
1.1808837585
1.1821345346
1.1830434803
1.1836889295
1.1841305759
1.1844176323
1.1845913608
1.1846860609
1.1847270006
1.1845157344
1.3064574762
1.3016972072
1.3013330334
1.3006202809
1.2995901863
1.2982848958
1.2967530167
1.2950452378
1.2932051727
1.2912604340
1.2892131815
1.2870245082
1.2845966491
1.2817498513
1.2781826397
1.2734091938
1.2666481782
1.2565991725
1.2409796892
1.2154836674
1.1713093007
1.0898645765
0.8963539549
0.9462061662
0.9698149268
0.9762135866
0.9858473648
0.9949948270
1.0048437198
1.0155448321
1.0267574797
1.0380164683
1.0489417964
1.0593358520
1.0692130201
1.0787761533
1.0883402478
1.0982216003
1.1086085418
1.1194492275
1.1304158951
1.1409902557
1.1506292894
1.1589298944
1.1657208182
1.1710509086
1.1751129547
1.1781583841
1.1804298411
1.1821250042
1.1833899082
1.1843265171
1.1850055482
1.1854807261
1.1857972351
1.1859939925
1.1861042539
1.1861530000
1.1859617361
1.3062075541
1.3013581475
1.3009700036
1.3002082688
1.2991021959
1.2976908492
1.2960186162
1.2941309711
1.2920651809
1.2898414201
1.2874536664
1.2848540743
1.2819356874
1.2785111466
1.2742763622
1.2687574531
1.2612240060
1.2505230325
1.2347635620
1.2106750262
1.1722633681
1.1099869425
0.9843145230
0.9856035830
0.9875015356
0.9883561603
0.9942116475
1.0021648642
1.0116337829
1.0220712000
1.0329180115
1.0436877601
1.0540453758
1.0638498858
1.0731602373
1.0822116485
1.0913515506
1.1009093375
1.1110690653
1.1217585860
1.1326175631
1.1430939511
1.1526217767
1.1607916363
1.1674404229
1.1726317768
1.1765721696
1.1795215221
1.1817249185
1.1833775751
1.1846202971
1.1855489215
1.1862284280
1.1867080521
1.1870299792
1.1872314156
1.1873448997
1.1873952594
1.1872089289
1.3057543496
1.3008807162
1.3004729446
1.2996712948
1.2985037989
1.2970076458
1.2952247271
1.2931976283
1.2909604002
1.2885299828
1.2858977940
1.2830146736
1.2797747861
1.2759967626
1.2713910797
1.2655151316
1.2577044619
1.2469449491
1.2316479148
1.2092336204
1.1753470396
1.1243512215
1.0359877674
1.0151261164
1.0047218535
1.0007266192
1.0033845004
1.0098549667
1.0185938571
1.0285342629
1.0389041267
1.0491612623
1.0589797062
1.0682469612
1.0770509722
1.0856493312
1.0944033852
1.1036597578
1.1135989636
1.1241320996
1.1348720225
1.1452386957
1.1546467627
1.1626809030
1.1691838736
1.1742307918
1.1780390692
1.1808757654
1.1829885646
1.1845715720
1.1857623591
1.1866527989
1.1873041210
1.1877626582
1.1880687170
1.1882584958
1.1883641866
1.1884106237
1.1882160152
1.3051311181
1.3003000161
1.2998787148
1.2990497216
1.2978405714
1.2962876877
1.2944319683
1.2923149681
1.2899697691
1.2874126992
1.2846355200
1.2815909213
1.2781774396
1.2742224734
1.2694523368
1.2634527501
1.2556113602
1.2450128259
1.2302661399
1.2092131081
1.1784439830
1.1341612197
1.0659238880
1.0355192501
1.0184351135
1.0109710171
1.0113211660
1.0165595751
1.0246229852
1.0341021350
1.0440636159
1.0539112262
1.0633143084
1.0721732611
1.0805923061
1.0888443825
1.0972978960
1.1063103000
1.1160619220
1.1264521879
1.1370750900
1.1473306963
1.1566196672
1.1645221245
1.1708846088
1.1757901495
1.1794639748
1.1821786008
1.1841842704
1.1856752590
1.1867879403
1.1876125076
1.1882086052
1.1886214536
1.1888908081
1.1890527506
1.1891396497
1.1891766093
1.1889602085
1.3043617950
1.2996393691
1.2992114526
1.2983692691
1.2971404598
1.2955615815
1.2936736934
1.2915186173
1.2891298425
1.2865243807
1.2836952580
1.2805973054
1.2771326324
1.2731346663
1.2683396649
1.2623500486
1.2545826183
1.2441748213
1.2298368780
1.2096183855
1.1805624933
1.1396452194
1.0806742955
1.0469871186
1.0272070660
1.0180899141
1.0172578057
1.0217712249
1.0293759132
1.0385165900
1.0481842749
1.0577532424
1.0668860076
1.0754852945
1.0836604209
1.0916899844
1.0999457834
1.1087882875
1.1183983159
1.1286689609
1.1391841843
1.1493334487