<VTKFile type="UnstructuredGrid" version="0.1">
	<UnstructuredGrid>
		<Piece NumberOfPoints="13548" NumberOfCells="3387">
			<CellData>
				<DataArray type="Int32" Name="ghost" NumberOfComponents="1" Format="ascii">
1
1
1
1
1
1
1
1
1
1
1
1
1
1
1
1
1
1
1
1
1
1
1
1
1
1
1
1
1
1
1
1
1
1
1
1
1
1
1
1
1
1
1
1
1
1
1
1
1
1
1
1
1
1
1
1
1
1
0
0
0
0
0
0
0
0
0
0
0
0
0
0
0
0
0
0
0
0
1
1
0
0
0
0
0
0
0
0
0
0
0
0
0
0
0
0
0
0
0
0
0
0
0
0
0
0
0
0
0
0
0
0
0
1
1
0
0
0
0
0
0
0
0
0
0
0
0
0
0
0
0
0
0
0
0
1
1
0
0
0
0
0
0
0
0
0
0
0
0
0
0
0
0
0
0
0
0
0
0
0
0
0
0
0
0
0
0
0
0
0
1
1
0
0
0
0
0
0
0
0
0
0
0
0
0
0
0
0
0
0
0
0
1
1
0
0
0
0
0
0
0
0
0
0
0
0
0
0
0
0
0
0
0
0
0
0
0
0
0
0
0
0
0
0
0
0
0
1
1
0
0
0
0
0
0
0
0
0
0
0
0
0
0
0
0
0
0
0
0
1
1
0
0
0
0
0
0
0
0
0
0
0
0
0
0
0
0
0
0
0
0
0
0
0
0
0
0
0
0
0
0
0
0
0
1
1
0
0
0
0
0
0
0
0
0
0
0
0
0
0
0
0
0
0
0
0
1
1
0
0
0
0
0
0
0
0
0
0
0
0
0
0
0
0
0
0
0
0
0
0
0
0
0
0
0
0
0
0
0
0
0
1
1
0
0
0
0
0
0
0
0
0
0
0
0
0
0
0
0
0
0
0
0
1
1
0
0
0
0
0
0
0
0
0
0
0
0
0
0
0
0
0
0
0
0
0
0
0
0
0
0
0
0
0
0
0
0
0
1
1
0
0
0
0
0
0
0
0
0
0
0
0
0
0
0
0
0
0
0
0
1
1
0
0
0
0
0
0
0
0
0
0
0
0
0
0
0
0
0
0
0
0
0
0
0
0
0
0
0
0
0
0
0
0
0
1
1
0
0
0
0
0
0
0
0
0
0
0
0
0
0
0
0
0
0
0
0
1
1
0
0
0
0
0
0
0
0
0
0
0
0
0
0
0
0
0
0
0
0
0
0
0
0
0
0
0
0
0
0
0
0
0
1
1
0
0
0
0
0
0
0
0
0
0
0
0
0
0
0
0
0
0
0
0
1
1
0
0
0
0
0
0
0
0
0
0
0
0
0
0
0
0
0
0
0
0
0
0
0
0
0
0
0
0
0
0
0
0
0
1
1
0
0
0
0
0
0
0
0
0
0
0
0
0
0
0
0
0
0
0
0
1
1
0
0
0
0
0
0
0
0
0
0
0
0
0
0
0
0
0
0
0
0
0
0
0
0
0
0
0
0
0
0
0
0
0
1
1
0
0
0
0
0
0
0
0
0
0
0
0
0
0
0
0
0
0
0
0
1
1
0
0
0
0
0
0
0
0
0
0
0
0
0
0
0
0
0
0
0
0
0
0
0
0
0
0
0
0
0
0
0
0
0
1
1
0
0
0
0
0
0
0
0
0
0
0
0
0
0
0
0
0
0
0
0
1
1
0
0
0
0
0
0
0
0
0
0
0
0
0
0
0
0
0
0
0
0
0
0
0
0
0
0
0
0
0
0
0
0
0
1
1
0
0
0
0
0
0
0
0
0
0
0
0
0
0
0
0
0
0
0
0
1
1
0
0
0
0
0
0
0
0
0
0
0
0
0
0
0
0
0
0
0
0
0
0
0
0
0
0
0
0
0
0
0
0
0
1
1
0
0
0
0
0
0
0
0
0
0
0
0
0
0
0
0
0
0
0
0
1
1
0
0
0
0
0
0
0
0
0
0
0
0
0
0
0
0
0
0
0
0
0
0
0
0
0
0
0
0
0
0
0
0
0
1
1
0
0
0
0
0
0
0
0
0
0
0
0
0
0
0
0
0
0
0
0
1
1
0
0
0
0
0
0
0
0
0
0
0
0
0
0
0
0
0
0
0
0
0
0
0
0
0
0
0
0
0
0
0
0
0
1
1
0
0
0
0
0
0
0
0
0
0
0
0
0
0
0
0
0
0
0
0
1
1
0
0
0
0
0
0
0
0
0
0
0
0
0
0
0
0
0
0
0
0
0
0
0
0
0
0
0
0
0
0
0
0
0
1
1
0
0
0
0
0
0
0
0
0
0
0
0
0
0
0
0
0
0
0
0
1
1
0
0
0
0
0
0
0
0
0
0
0
0
0
0
0
0
0
0
0
0
0
0
0
0
0
0
0
0
0
0
0
0
0
1
1
0
0
0
0
0
0
0
0
0
0
0
0
0
0
0
0
0
0
0
0
1
1
0
0
0
0
0
0
0
0
0
0
0
0
0
0
0
0
0
0
0
0
0
0
0
0
0
0
0
0
0
0
0
0
0
1
1
0
0
0
0
0
0
0
0
0
0
0
0
0
0
0
0
0
0
0
0
1
1
0
0
0
0
0
0
0
0
0
0
0
0
0
0
0
0
0
0
0
0
0
0
0
0
0
0
0
0
0
0
0
0
0
1
1
0
0
0
0
0
0
0
0
0
0
0
0
0
0
0
0
0
0
0
0
1
1
0
0
0
0
0
0
0
0
0
0
0
0
0
0
0
0
0
0
0
0
0
0
0
0
0
0
0
0
0
0
0
0
0
1
1
0
0
0
0
0
0
0
0
0
0
0
0
0
0
0
0
0
0
0
0
1
1
0
0
0
0
0
0
0
0
0
0
0
0
0
0
0
0
0
0
0
0
0
0
0
0
0
0
0
0
0
0
0
0
0
1
1
0
0
0
0
0
0
0
0
0
0
0
0
0
0
0
0
0
0
0
0
1
1
0
0
0
0
0
0
0
0
0
0
0
0
0
0
0
0
0
0
0
0
0
0
0
0
0
0
0
0
0
0
0
0
0
1
1
0
0
0
0
0
0
0
0
0
0
0
0
0
0
0
0
0
0
0
0
1
1
0
0
0
0
0
0
0
0
0
0
0
0
0
0
0
0
0
0
0
0
0
0
0
0
0
0
0
0
0
0
0
0
0
1
1
0
0
0
0
0
0
0
0
0
0
0
0
0
0
0
0
0
0
0
0
1
1
0
0
0
0
0
0
0
0
0
0
0
0
0
0
0
0
0
0
0
0
0
0
0
0
0
0
0
0
0
0
0
0
0
1
1
0
0
0
0
0
0
0
0
0
0
0
0
0
0
0
0
0
0
0
0
0
1
1
0
0
0
0
0
0
0
0
0
0
0
0
0
0
0
0
0
0
0
0
0
0
0
0
0
0
0
0
0
0
0
0
0
0
1
1
0
0
0
0
0
0
0
0
0
0
0
0
0
0
0
0
0
0
0
0
0
0
0
0
0
0
0
0
0
0
0
0
0
0
0
0
0
0
0
0
0
0
0
0
0
0
0
0
0
0
0
0
0
0
0
0
0
1
1
0
0
0
0
0
0
0
0
0
0
0
0
0
0
0
0
0
0
0
0
0
0
0
0
0
0
0
0
0
0
0
0
0
0
0
0
0
0
0
0
0
0
0
0
0
0
0
0
0
0
0
0
0
0
0
0
0
1
1
0
0
0
0
0
0
0
0
0
0
0
0
0
0
0
0
0
0
0
0
0
0
0
0
0
0
0
0
0
0
0
0
0
0
0
0
0
0
0
0
0
0
0
0
0
0
0
0
0
0
0
0
0
0
0
0
0
1
1
0
0
0
0
0
0
0
0
0
0
0
0
0
0
0
0
0
0
0
0
0
0
0
0
0
0
0
0
0
0
0
0
0
0
0
0
0
0
0
0
0
0
0
0
0
0
0
0
0
0
0
0
0
0
0
0
0
1
1
0
0
0
0
0
0
0
0
0
0
0
0
0
0
0
0
0
0
0
0
0
0
0
0
0
0
0
0
0
0
0
0
0
0
0
0
0
0
0
0
0
0
0
0
0
0
0
0
0
0
0
0
0
0
0
0
0
1
1
0
0
0
0
0
0
0
0
0
0
0
0
0
0
0
0
0
0
0
0
0
0
0
0
0
0
0
0
0
0
0
0
0
0
0
0
0
0
0
0
0
0
0
0
0
0
0
0
0
0
0
0
0
0
0
0
0
1
1
0
0
0
0
0
0
0
0
0
0
0
0
0
0
0
0
0
0
0
0
0
0
0
0
0
0
0
0
0
0
0
0
0
0
0
0
0
0
0
0
0
0
0
0
0
0
0
0
0
0
0
0
0
0
0
0
0
1
1
0
0
0
0
0
0
0
0
0
0
0
0
0
0
0
0
0
0
0
0
0
0
0
0
0
0
0
0
0
0
0
0
0
0
0
0
0
0
0
0
0
0
0
0
0
0
0
0
0
0
0
0
0
0
0
0
0
1
1
0
0
0
0
0
0
0
0
0
0
0
0
0
0
0
0
0
0
0
0
0
0
0
0
0
0
0
0
0
0
0
0
0
0
0
0
0
0
0
0
0
0
0
0
0
0
0
0
0
0
0
0
0
0
0
0
0
1
1
0
0
0
0
0
0
0
0
0
0
0
0
0
0
0
0
0
0
0
0
0
0
0
0
0
0
0
0
0
0
0
0
0
0
0
0
0
0
0
0
0
0
0
0
0
0
0
0
0
0
0
0
0
0
0
0
0
1
1
0
0
0
0
0
0
0
0
0
0
0
0
0
0
0
0
0
0
0
0
0
1
1
0
0
0
0
0
0
0
0
0
0
0
0
0
0
0
0
0
0
0
0
0
0
0
0
0
0
0
0
0
0
0
0
0
0
1
1
0
0
0
0
0
0
0
0
0
0
0
0
0
0
0
0
0
0
0
0
1
1
0
0
0
0
0
0
0
0
0
0
0
0
0
0
0
0
0
0
0
0
0
0
0
0
0
0
0
0
0
0
0
0
0
1
1
0
0
0
0
0
0
0
0
0
0
0
0
0
0
0
0
0
0
0
0
1
1
0
0
0
0
0
0
0
0
0
0
0
0
0
0
0
0
0
0
0
0
0
0
0
0
0
0
0
0
0
0
0
0
0
1
1
0
0
0
0
0
0
0
0
0
0
0
0
0
0
0
0
0
0
0
0
1
1
0
0
0
0
0
0
0
0
0
0
0
0
0
0
0
0
0
0
0
0
0
0
0
0
0
0
0
0
0
0
0
0
0
1
1
0
0
0
0
0
0
0
0
0
0
0
0
0
0
0
0
0
0
0
0
1
1
0
0
0
0
0
0
0
0
0
0
0
0
0
0
0
0
0
0
0
0
0
0
0
0
0
0
0
0
0
0
0
0
0
1
1
0
0
0
0
0
0
0
0
0
0
0
0
0
0
0
0
0
0
0
0
1
1
0
0
0
0
0
0
0
0
0
0
0
0
0
0
0
0
0
0
0
0
0
0
0
0
0
0
0
0
0
0
0
0
0
1
1
0
0
0
0
0
0
0
0
0
0
0
0
0
0
0
0
0
0
0
0
1
1
0
0
0
0
0
0
0
0
0
0
0
0
0
0
0
0
0
0
0
0
0
0
0
0
0
0
0
0
0
0
0
0
0
1
1
0
0
0
0
0
0
0
0
0
0
0
0
0
0
0
0
0
0
0
0
1
1
0
0
0
0
0
0
0
0
0
0
0
0
0
0
0
0
0
0
0
0
0
0
0
0
0
0
0
0
0
0
0
0
0
1
1
0
0
0
0
0
0
0
0
0
0
0
0
0
0
0
0
0
0
0
0
1
1
0
0
0
0
0
0
0
0
0
0
0
0
0
0
0
0
0
0
0
0
0
0
0
0
0
0
0
0
0
0
0
0
0
1
1
0
0
0
0
0
0
0
0
0
0
0
0
0
0
0
0
0
0
0
0
1
1
0
0
0
0
0
0
0
0
0
0
0
0
0
0
0
0
0
0
0
0
0
0
0
0
0
0
0
0
0
0
0
0
0
1
1
0
0
0
0
0
0
0
0
0
0
0
0
0
0
0
0
0
0
0
0
1
1
0
0
0
0
0
0
0
0
0
0
0
0
0
0
0
0
0
0
0
0
0
0
0
0
0
0
0
0
0
0
0
0
0
1
1
0
0
0
0
0
0
0
0
0
0
0
0
0
0
0
0
0
0
0
0
1
1
0
0
0
0
0
0
0
0
0
0
0
0
0
0
0
0
0
0
0
0
0
0
0
0
0
0
0
0
0
0
0
0
0
1
1
0
0
0
0
0
0
0
0
0
0
0
0
0
0
0
0
0
0
0
0
1
1
0
0
0
0
0
0
0
0
0
0
0
0
0
0
0
0
0
0
0
0
0
0
0
0
0
0
0
0
0
0
0
0
0
1
1
0
0
0
0
0
0
0
0
0
0
0
0
0
0
0
0
0
0
0
0
1
1
0
0
0
0
0
0
0
0
0
0
0
0
0
0
0
0
0
0
0
0
0
0
0
0
0
0
0
0
0
0
0
0
0
1
1
0
0
0
0
0
0
0
0
0
0
0
0
0
0
0
0
0
0
0
0
1
1
0
0
0
0
0
0
0
0
0
0
0
0
0
0
0
0
0
0
0
0
0
0
0
0
0
0
0
0
0
0
0
0
0
1
1
0
0
0
0
0
0
0
0
0
0
0
0
0
0
0
0
0
0
0
0
1
1
0
0
0
0
0
0
0
0
0
0
0
0
0
0
0
0
0
0
0
0
0
0
0
0
0
0
0
0
0
0
0
0
0
1
1
0
0
0
0
0
0
0
0
0
0
0
0
0
0
0
0
0
0
0
0
1
1
0
0
0
0
0
0
0
0
0
0
0
0
0
0
0
0
0
0
0
0
0
0
0
0
0
0
0
0
0
0
0
0
0
1
1
0
0
0
0
0
0
0
0
0
0
0
0
0
0
0
0
0
0
0
0
1
1
0
0
0
0
0
0
0
0
0
0
0
0
0
0
0
0
0
0
0
0
0
0
0
0
0
0
0
0
0
0
0
0
0
1
1
0
0
0
0
0
0
0
0
0
0
0
0
0
0
0
0
0
0
0
0
1
1
0
0
0
0
0
0
0
0
0
0
0
0
0
0
0
0
0
0
0
0
0
0
0
0
0
0
0
0
0
0
0
0
0
1
1
0
0
0
0
0
0
0
0
0
0
0
0
0
0
0
0
0
0
0
0
1
1
0
0
0
0
0
0
0
0
0
0
0
0
0
0
0
0
0
0
0
0
0
0
0
0
0
0
0
0
0
0
0
0
0
1
1
0
0
0
0
0
0
0
0
0
0
0
0
0
0
0
0
0
0
0
0
1
1
0
0
0
0
0
0
0
0
0
0
0
0
0
0
0
0
0
0
0
0
0
0
0
0
0
0
0
0
0
0
0
0
0
1
1
0
0
0
0
0
0
0
0
0
0
0
0
0
0
0
0
0
0
0
0
1
1
0
0
0
0
0
0
0
0
0
0
0
0
0
0
0
0
0
0
0
0
0
0
0
0
0
0
0
0
0
0
0
0
0
1
1
1
1
1
1
1
1
1
1
1
1
1
1
1
1
1
1
1
1
1
1
1
1
1
1
1
1
1
1
1
1
1
1
1
1
1
1
1
1
1
1
1
1
1
1
1
1
1
1
1
1
1
1
1
1
1
1
				</DataArray>
				<DataArray type="Float64" Name="h" NumberOfComponents="1" Format="ascii">
1.1800427738
1.1784985817
1.1785139709
1.1785570452
1.1786500995
1.1788218393
1.1791024071
1.1795179958
1.1800863163
1.1808129269
1.1816892767
1.1826927447
1.1837880820
1.1849305137
1.1860697124
1.1871539190
1.1881342778
1.1889682084
1.1896215694
1.1900698370
1.1902976292
1.1902976292
1.2356117169
1.2406037048
1.2384471568
1.2344281572
1.2290783041
1.2230669804
1.2170740398
1.2116700558
1.2072430372
1.2039805557
1.2018977569
1.2008903938
1.2007882542
1.2013976714
1.2025295480
1.2040142334
1.2057082231
1.2074946965
1.2092813493
1.2109981483
1.2125937725
1.2140326582
1.2152934473
1.2163664106
1.2172515536
1.2179577457
1.2185003752
1.2188995013
1.2191787951
1.2193629500
1.2194757723
1.2195391930
1.2195709878
1.2195834989
1.2195834989
1.1784985817
1.1768924086
1.1768883634
1.1768920387
1.1769248357
1.1770144941
1.1771904806
1.1774789357
1.1778984128
1.1784563976
1.1791474100
1.1799530192
1.1808431915
1.1817791944
1.1827173131
1.1836126716
1.1844232099
1.1851126780
1.1856524584
1.1860224423
1.1862103095
1.1902976292
1.2406037048
1.2452231538
1.2430526014
1.2389750901
1.2334780568
1.2271971407
1.2208071788
1.2149055202
1.2099273733
1.2061109342
1.2035117283
1.2020497903
1.2015638693
1.2018579772
1.2027341189
1.2040109572
1.2055330041
1.2071726224
1.2088285564
1.2104239079
1.2119025303
1.2132258894
1.2143712491
1.2153287867
1.2160994088
1.2166935985
1.2171287994
1.2174273560
1.2176152700
1.2177194515
1.2177657046
1.2177776494
1.2177743750
1.2177691235
1.2195834989
1.1780046160
1.1764312279
1.1764328041
1.1764472706
1.1764951755
1.1766030951
1.1767991463
1.1771080792
1.1775471556
1.1781227857
1.1788287125
1.1796460591
1.1805446646
1.1814859446
1.1824265440
1.1833220972
1.1841311547
1.1848181455
1.1853551688
1.1857228127
1.1859093394
1.1899744852
1.2402578763
1.2449116731
1.2427743248
1.2387600880
1.2333499073
1.2271698836
1.2208837252
1.2150784904
1.2101822174
1.2064300539
1.2038781070
1.2024492268
1.2019857323
1.2022949328
1.2031813703
1.2044654095
1.2059925825
1.2076358012
1.2092940865
1.2108907000
1.2123696218
1.2136924549
1.2148366269
1.2157924896
1.2165611208
1.2171531599
1.2175861799
1.2178826286
1.2180685886
1.2181710340
1.2182158235
1.2182266232
1.2182225605
1.2182169078
1.2199765136
1.1770322559
1.1755224947
1.1755351234
1.1755707978
1.1756483737
1.1757921238
1.1760274988
1.1763765097
1.1768538820
1.1774639202
1.1781988523
1.1790389373
1.1799537748
1.1809050789
1.1818502060
1.1827457953
1.1835516020
1.1842333987
1.1847647128
1.1851275326
1.1853112999
1.1893323295
1.2395684487
1.2442878993
1.2422166928
1.2383282710
1.2330903635
1.2271099524
1.2210287320
1.2154136171
1.2106787401
1.2070534224
1.2045950018
1.2032318811
1.2028133832
1.2031532815
1.2040610978
1.2053605431
1.2068991614
1.2085509489
1.2102154698
1.2118162913
1.2132976255
1.2146213210
1.2157650969
1.2167196151
1.2174862549
1.2180759282
1.2185064282
1.2188003726
1.2189839706
1.2190842914
1.2191272737
1.2191366482
1.2191315984
1.2191254421
1.2207758546
1.1756132670
1.1741942237
1.1742229442
1.1742894754
1.1744101748
1.1746059242
1.1748982637
1.1753052041
1.1758377834
1.1764972597
1.1772736832
1.1781460834
1.1790837348
1.1800488021
1.1809996863
1.1818944943
1.1826947430
1.1833681836
1.1838904718
1.1842457116
1.1844251512
1.1883805853
1.2385399491
1.2433504395
1.2413776250
1.2376758389
1.2326925010
1.2270058859
1.2212253060
1.2158885375
1.2113898955
1.2079505983
1.2056299770
1.2043645661
1.2040138589
1.2044010063
1.2053427662
1.2066677309
1.2082263929
1.2098943444
1.2115719444
1.2131831898
1.2146725941
1.2160023067
1.2171504004
1.2181079063
1.2188765546
1.2194675636
1.2198989555
1.2201935043
1.2203775146
1.2204781090
1.2205212632
1.2205307327
1.2205257257
1.2205195864
1.2220073256
1.1737944039
1.1724878179
1.1725370540
1.1726428903
1.1728184419
1.1730802049
1.1734446839
1.1739247652
1.1745267897
1.1752481596
1.1760761898
1.1769883858
1.1779536455
1.1789347345
1.1798914003
1.1807836316
1.1815752097
1.1822364563
1.1827458395
1.1830903180
1.1832636262
1.1871327054
1.2371780642
1.2420964740
1.2402530057
1.2367956903
1.2321441746
1.2268385776
1.2214462831
1.2164681518
1.2122738880
1.2090749813
1.2069336390
1.2057968609
1.2055370886
1.2059893979
1.2069797730
1.2083430630
1.2099335721
1.2116289739
1.2133306632
1.2149631741
1.2164713538
1.2178176465
1.2189804554
1.2199511367
1.2207317047
1.2213335932
1.2217749343
1.2220785154
1.2222705773
1.2223781300
1.2224270270
1.2224409059
1.2224388849
1.2224342554
1.2237078023
1.1716367574
1.1704577443
1.1705310606
1.1706829831
1.1709227419
1.1712615961
1.1717100659
1.1722749816
1.1729571663
1.1737495233
1.1746362047
1.1755929802
1.1765883528
1.1775858287
1.1785467592
1.1794333607
1.1802121085
1.1808564282
1.1813482673
1.1816782167
1.1818432596
1.1856062205
1.2354887977
1.2405213765
1.2388360026
1.2356762824
1.2314264671
1.2265795308
1.2216525540
1.2171032159
1.2132731080
1.2103630661
1.2084391292
1.2074607499
1.2073155936
1.2078527395
1.2089090473
1.2103267971
1.2119648765
1.2137035042
1.2154453580
1.2171156193
1.2186594820
1.2200396267
1.2212346779
1.2222361570
1.2230461536
1.2236760651
1.2241438405
1.2244719533
1.2246862327
1.2248132245
1.2248783241
1.2249047498
1.2249112848
1.2249109954
1.2259224788
1.1692148053
1.1681710198
1.1682708796
1.1684735448
1.1687838651
1.1692072147
1.1697474181
1.1704045662
1.1711733768
1.1720418083
1.1729905668
1.1739935596
1.1750189045
1.1760309644
1.1769928874
1.1778693755
1.1786299312
1.1792515424
1.1797202799
1.1800312010
1.1801854235
1.1838237664
1.2334778272
1.2386187264
1.2371167425
1.2343007970
1.2305124136
1.2261893873
1.2217916898
1.2177292793
1.2143134713
1.2117341649
1.2100621551
1.2092708714
1.2092648632
1.2099087274
1.2110514339
1.2125436202
1.2142494217
1.2160520496
1.2178557402
1.2195864680
1.2211898009
1.2226285759
1.2238814644
1.2249398842
1.2258056425
1.2264896650
1.2270092111
1.2273858791
1.2276444910
1.2278105248
1.2279083379
1.2279602070
1.2279841515
1.2279927090
1.2287004312
1.1666131805
1.1657044402
1.1658319883
1.1660875196
1.1664712042
1.1669821448
1.1676170565
1.1683689059
1.1692259871
1.1701710855
1.1711813290
1.1722287178
1.1732810102
1.1743035024
1.1752612506
1.1761215893
1.1768572645
1.1774491885
1.1778881737
1.1781746616
1.1783149711
1.1818117110
1.2311487045
1.2363792958
1.2350810865
1.2326456413
1.2293653689
1.2256164434
1.2217968987
1.2182662837
1.2153047369
1.2130914218
1.2117026210
1.2111266631
1.2112859072
1.2120613182
1.2133147165
1.2149057244
1.2167042553
1.2185969467
1.2204899222
1.2223101694
1.2240037210
1.2255335177
1.2268780818
1.2280283834
1.2289854598
1.2297591479
1.2303652869
1.2308237753
1.2311575427
1.2313900942
1.2315438718
1.2316394133
1.2316933162
1.2317171183
1.2320888980
1.1639235021
1.1631418893
1.1632967942
1.1636044900
1.1640604039
1.1646572924
1.1653846913
1.1662283953
1.1671702509
1.1681878697
1.1692548207
1.1703412246
1.1714145082
1.1724409219
1.1733874396
1.1742240429
1.1749267924
1.1754807684
1.1758821076
1.1761376679
1.1762602994
1.1796001724
1.2285015367
1.2337906682
1.2327100970
1.2306797295
1.2279382268
1.2247960290
1.2215867936
1.2186188845
1.2161414671
1.2143234301
1.2132468777
1.2129151914
1.2132685948
1.2142044883
1.2155976940
1.2173170732
1.2192386738
1.2212529676
1.2232683622
1.2252131900
1.2270341525
1.2286943263
1.2301719262
1.2314571110
1.2325495773
1.2334573124
1.2341938021
1.2347761707
1.2352242826
1.2355584552
1.2357980244
1.2359606998
1.2360607507
1.2361080634
1.2361253031
1.1612402962
1.1605707089
1.1607511123
1.1611073578
1.1616303265
1.1623066907
1.1631191068
1.1640465037
1.1650645575
1.1661459330
1.1672608022
1.1683774946
1.1694631224
1.1704848403
1.1714114299
1.1722153785
1.1728759555
1.1733824951
1.1737369836
1.1739538726
1.1740542443
1.1772238163
1.2255319096
1.2308372070
1.2299800135
1.2283645145
1.2261736071
1.2236509706
1.2210662343
1.2186777490
1.2167048374
1.2153065957
1.2145706670
1.2145146847
1.2150957575
1.2162268613
1.2177952543
1.2196788215
1.2217598590
1.2239330206
1.2261094579
1.2282193101
1.2302103023
1.2320458164
1.2337036989
1.2351729796
1.2364514309
1.2375443550
1.2384618224
1.2392169273
1.2398250753
1.2403019354
1.2406622912
1.2409196922
1.2410849635
1.2411655349
1.2408275596
1.1586551635
1.1580762228
1.1582788153
1.1586772339
1.1592582673
1.1600030998
1.1608881691
1.1618861877
1.1629672284
1.1640994489
1.1652499160
1.1663853052
1.1674724096
1.1684791564
1.1693758930
1.1701372912
1.1707455106
1.1711940173
1.1714910772
1.1716600899
1.1717325961
1.1747202476
1.2222282243
1.2274984023
1.2268609017
1.2256531692
1.2240036985
1.2220921223
1.2201275190
1.2183213847
1.2168651142
1.2159083084
1.2155430395
1.2157992318
1.2166486674
1.2180179245
1.2198052530
1.2218967457
1.2241807260
1.2265562597
1.2289377389
1.2312576983
1.2334654106
1.2355249039
1.2374137436
1.2391196244
1.2406378822
1.2419703255
1.2431225360
1.2441022781
1.2449190323
1.2455822677
1.2461006694
1.2464821935
1.2467330183
1.2468572442
1.2461850315
1.1562515855
1.1557367963
1.1559570342
1.1563889045
1.1570157840
1.1578142595
1.1587555302
1.1598070459
1.1609340984
1.1621009661
1.1632720143
1.1644124408
1.1654886877
1.1664692380
1.1673256208
1.1680341718
1.1685793622
1.1689583891
1.1691860624
1.1692962806
1.1693340053
1.1721297830
1.2185698170
1.2237479311
1.2233161577
1.2224908090
1.2213512428
1.2200199805
1.2186524388
1.2174184997
1.2164842970
1.2159899376
1.2160298130
1.2166428009
1.2178116732
1.2194732880
1.2215343593
1.2238876088
1.2264267129
1.2290551833
1.2316911381
1.2342701993
1.2367438739
1.2390773600
1.2412482083
1.2432427418
1.2450535042
1.2466781507
1.2481168475
1.2493708788
1.2504424860
1.2513335410
1.2520452337
1.2525786305
1.2529341734
1.2531118440
1.2521501451
1.1540998003
1.1536188645
1.1538513273
1.1543062653
1.1549644939
1.1557991146
1.1567773129
1.1578624649
1.1590161054
1.1601994122
1.1613745451
1.1625054313
1.1635581050
1.1645013061
1.1653072197
1.1659531046
1.1664248513
1.1667226013
1.1668676781
1.1669062033
1.1669005324
1.1694958445
1.2145264049
1.2195538546
1.2193032764
1.2188161452
1.2181320593
1.2173278089
1.2165156558
1.2158313748
1.2154193912
1.2154100519
1.2158968630
1.2169227306
1.2184759848
1.2204988136
1.2229025362
1.2255839715
1.2284408842
1.2313809762
1.2343265049
1.2372169313
1.2400068213
1.2426632443
1.2451641976
1.2474948127
1.2496447317
1.2516070790
1.2533760097
1.2549455589
1.2563098381
1.2574621763
1.2583953269
1.2591025970
1.2595779663
1.2598167738
1.2586334864
1.1522518840
1.1517721126
1.1520109534
1.1524777721
1.1531517660
1.1540037899
1.1549983843
1.1560961879
1.1572561351
1.1584371871
1.1595998631
1.1607070554
1.1617243143
1.1626202707
1.1633671057
1.1639420285
1.1643310807
1.1645360360
1.1645842027
1.1645357287
1.1644757156
1.1668628804
1.2100570783
1.2148780470
1.2147740362
1.2145628732
1.2142576914
1.2139052767
1.2135889311
1.2134203357
1.2135269275
1.2140289363
1.2150146661
1.2165243439
1.2185443848
1.2210154166
1.2238479124
1.2269391066
1.2301888630
1.2335084428
1.2368245261
1.2400811875
1.2432369906
1.2462617512
1.2491345919
1.2518399068
1.2543646742
1.2566975397
1.2588265766
1.2607384172
1.2624188414
1.2638524242
1.2650232804
1.2659167774
1.2665202912
1.2668244201
1.2655064116
1.1507389047
1.1502266973
1.1504661390
1.1509337939
1.1516081945
1.1524592082
1.1534501340
1.1545402571
1.1556871243
1.1568484206
1.1579836358
1.1590548890
1.1600271682
1.1608685837
1.1615505391
1.1620489879
1.1623484171
1.1624502081
1.1623863023
1.1622325142
1.1621038723
1.1642755703
1.2051137304
1.2096798022
1.2096787815
1.2096650238
1.2096418889
1.2096458136
1.2097489190
1.2100515515
1.2106704348
1.2117155312
1.2132645918
1.2153465322
1.2179360695
1.2209631578
1.2243301395
1.2279296667
1.2316608799
1.2354375245
1.2391908172
1.2428702162
1.2464393308
1.2498717898
1.2531487860
1.2562547919
1.2591748318
1.2618937121
1.2643940600
1.2666557648
1.2686569583
1.2703741721
1.2717835874
1.2728632816
1.2735945802
1.2739637453
1.2726092797
1.1495696642
1.1489920382
1.1492268551
1.1496853656
1.1503463229
1.1511797880
1.1521491521
1.1532136835
1.1543307362
1.1554576666
1.1565535728
1.1575800917
1.1585015908
1.1592852373
1.1599008090
1.1603215848
1.1605283023
1.1605189874
1.1603275352
1.1600463635
1.1598298965
1.1617785462
1.1996508775
1.2039255152
1.2039766184
1.2040679909
1.2042125910
1.2044593899
1.2048903404
1.2056100692
1.2067327949
1.2083586333
1.2105485805
1.2133096647
1.2165926777
1.2203053990
1.2243327895
1.2285565100
1.2328712559
1.2371916919
1.2414534826
1.2456122200
1.2496377280
1.2535087574
1.2572098718
1.2607269255
1.2640443208
1.2671444074
1.2700058498
1.2726033766
1.2749091073
1.2768931849
1.2785254509
1.2797781282
1.2806276830
1.2810568980
1.2797657168
1.1487311568
1.1480573518
1.1482832604
1.1487244589
1.1493606801
1.1501632047
1.1510966960
1.1521216175
1.1531962449
1.1542785214
1.1553277995
1.1563055641
1.1571755495
1.1579035943
1.1584569861
1.1588047525
1.1589211883
1.1587968199
1.1584627789
1.1580272851
1.1576962317
1.1594132892
1.1936389257
1.1976015084
1.1976487483
1.1977427895
1.1979275296
1.1982896169
1.1989443564
1.2000188848
1.2016351817
1.2038847801
1.2068051214
1.2103690208
1.2144888226
1.2190363643
1.2238681010
1.2288469375
1.2338585133
1.2388163363
1.2436602014
1.2483525559
1.2528707609
1.2572003255
1.2613309708
1.2652518796
1.2689489394
1.2724042849
1.2755950048
1.2784931470
1.2810673054
1.2832836585
1.2851079738
1.2865086045
1.2874587709
1.2879389200
1.2868018666
1.1481912930
1.1473944070
1.1476083201
1.1480263421
1.1486297847
1.1493919737
1.1502798213
1.1512560237
1.1522807717
1.1533134520
1.1543143204
1.1552450891
1.1560689298
1.1567500599
1.1572524826
1.1575393467
1.1575753806
1.1573380907
1.1568481336
1.1562251042
1.1557406996
1.1572158816
1.1870857689
1.1907349804
1.1907196659
1.1907078676
1.1907973353
1.1911386152
1.1919051713
1.1932666371
1.1953646550
1.1982842472
1.2020322041
1.2065336034
1.2116462005
1.2171905019
1.2229819509
1.2288558660
1.2346834320
1.2403743971
1.2458720788
1.2511464322
1.2561838535
1.2609786605
1.2655281369
1.2698275223
1.2738671708
1.2776321243
1.2811011055
1.2842466786
1.2870369723
1.2894370597
1.2914112038
1.2929260699
1.2939533617
1.2944723957
1.2935626877
1.1479029713
1.1469615186
1.1471616270
1.1475530738
1.1481191826
1.1488359423
1.1496732731
1.1505969554
1.1515699567
1.1525539024
1.1535106126
1.1544024829
1.1551923207
1.1558426005
1.1563134350
1.1565605934
1.1565358885
1.1561968692
1.1555418675
1.1546904991
1.1539945579
1.1552148762
1.1800622085
1.1834184044
1.1832815556
1.1830539627
1.1829120189
1.1830960491
1.1838618801
1.1854415940
1.1880086700
1.1916438820
1.1963162665
1.2018895295
1.2081505885
1.2148530756
1.2217586380
1.2286657362
1.2354251222
1.2419396012
1.2481549682
1.2540491434
1.2596191814
1.2648707003
1.2698116332
1.2744468283
1.2787749278
1.2827877483
1.2864694332
1.2897966358
1.2927402559
1.2952671291
1.2973424778
1.2989332885
1.3000112965
1.3005557466
1.2999233905
1.1478090436
1.1467083273
1.1468939830
1.1472576961
1.1477850899
1.1484552469
1.1492416628
1.1501138893
1.1510384267
1.1519799033
1.1529024173
1.1537696361
1.1545444038
1.1551876025
1.1556551883
1.1558944228
1.1558410059
1.1554244618
1.1546037263
1.1534748317
1.1524767694
1.1534250662
1.1727148499
1.1758210347
1.1755062076
1.1749578576
1.1744589216
1.1743629593
1.1750287623
1.1767675242
1.1797941889
1.1841861908
1.1898679324
1.1966298406
1.2041743225
1.2121750699
1.2203288444
1.2283886465
1.2361786122
1.2435907633
1.2505716272
1.2571070924
1.2632064410
1.2688894136
1.2741782640
1.2790916755
1.2836410034
1.2878291156
1.2916495295
1.2950864860
1.2981166205
1.3007109968
1.3028377994
1.3044658922
1.3055681988
1.3061246668
1.3057946149
1.1478477278
1.1465808769
1.1467522742
1.1470887137
1.1475782842
1.1482034400
1.1489416646
1.1497668500
1.1506497341
1.1515587557
1.1524611627
1.1533227564
1.1541072035
1.1547744414
1.1552766165
1.1555520938
1.1555179936
1.1550673833
1.1540969423
1.1526352185
1.1511893116
1.1518417728
1.1652466976
1.1681680018
1.1676274433
1.1666724148
1.1657243321
1.1652664913
1.1657724406
1.1676405522
1.1711299546
1.1763121718
1.1830610182
1.1910865437
1.1999997624
1.2093878553
1.2188762773
1.2281663121
1.2370496814
1.2454030273
1.2531707662
1.2603458575
1.2669509278
1.2730226317
1.2786014283
1.2837243097
1.2884198753
1.2927061966
1.2965897520
1.3000653089
1.3031175263
1.3057234481
1.3078555417
1.3094855076
1.3105881395
1.3111445333
1.3111180760
1.1479579870
1.1465265166
1.1466841809
1.1469944012
1.1474477757
1.1480302486
1.1487235378
1.1495063166
1.1503542255
1.1512404233
1.1521364904
1.1530117945
1.1538324844
1.1545594181
1.1551428355
1.1555136949
1.1555701672
1.1551617492
1.1540948118
1.1522546479
1.1501226186
1.1504440089
1.1577868178
1.1606097970
1.1598384479
1.1584625750
1.1570686461
1.1562673313
1.1566416972
1.1586709703
1.1626513068
1.1686426627
1.1764666343
1.1857558656
1.1960355384
1.2068111084
1.2176384128
1.2281650311
1.2381455471
1.2474357649
1.2559735444
1.2637564854
1.2708205561
1.2772213957
1.2830210444
1.2882787675
1.2930442967
1.2973542496
1.3012307119
1.3046809223
1.3076988873
1.3102685080
1.3123671088
1.3139695894
1.3150528513
1.3155992898
1.3158575736
1.1480855200
1.1464993674
1.1466435482
1.1469279463
1.1473455037
1.1478854701
1.1485336640
1.1492735605
1.1500859640
1.1509493714
1.1518408588
1.1527352713
1.1536042193
1.1544140037
1.1551194359
1.1556526437
1.1559023946
1.1556790456
1.1546753655
1.1525139026
1.1493500049
1.1492829502
1.1498214753
1.1526623975
1.1519895166
1.1505065763
1.1489525314
1.1480456989
1.1484678615
1.1507707956
1.1552829370
1.1620553503
1.1708695873
1.1813008958
1.1928112229
1.2048432650
1.2168947005
1.2285625585
1.2395609491
1.2497184099
1.2589597846
1.2672827183
1.2747345812
1.2813903866
1.2873355881
1.2926541570
1.2974192864
1.3016879414
1.3054990045
1.3088728283
1.3118129960
1.3143102651
1.3163467189
1.3179003323
1.3189500181
1.3194794137
1.3199879313
1.1481899149
1.1464669678
1.1465973065
1.1468548869
1.1472344595
1.1477277915
1.1483237741
1.1490094441
1.1497692987
1.1505854689
1.1514386863
1.1523074990
1.1531679185
1.1539930102
1.1547492201
1.1553894129
1.1558373341
1.1559512157
1.1554500394
1.1538012710
1.1503475170
1.1497878651
1.1371399660
1.1402126911
1.1432390175
1.1434099022
1.1425939070
1.1420489671
1.1427362968
1.1453574516
1.1503121442
1.1576719864
1.1672093653
1.1784760762
1.1909037773
1.2038987522
1.2169167854
1.2295099822
1.2413491668
1.2522282671
1.2620508663
1.2708078528
1.2785536304
1.2853804210
1.2913963210
1.2967098593
1.3014175860
1.3055964592
1.3093015390
1.3125655048
1.3154006869
1.3178039499
1.3197615353
1.3212540549
1.3222621472
1.3227705282
1.3234835134
1.1482520249
1.1464171937
1.1465332919
1.1467628390
1.1471015383
1.1475423172
1.1480751501
1.1486877801
1.1493641916
1.1500837076
1.1508204671
1.1515396813
1.1521924884
1.1527072805
1.1529697780
1.1527853523
1.1518037719
1.1493597227
1.1441370129
1.1334487080
1.1117528336
1.0694928068
1.0333050471
1.0895747607
1.1719670273
1.1596213630
1.1534628589
1.1486193159
1.1449389825
1.1427110591
1.1424073367
1.1444809006
1.1491983230
1.1565519524
1.1662628740
1.1778490658
1.1907168483
1.2042454545
1.2178561406
1.2310584231
1.2434769740
1.2548648326
1.2650968315
1.2741500339
1.2820800097
1.2889915256
1.2950115016
1.3002696984
1.3048829832
1.3089455048
1.3125259898
1.3156673043
1.3183888108
1.3206921948
1.3225669597
1.3239957806
1.3249606841
1.3254472884
1.3263114311
1.1482773162
1.1463612722
1.1464641823
1.1466675144
1.1469673655
1.1473570271
1.1478265848
1.1483634665
1.1489502986
1.1495633738
1.1501715864
1.1507316451
1.1511821948
1.1514355464
1.1513597870
1.1507496025
1.1492763288
1.1463935177
1.1411726471
1.1320376163
1.1164656017
1.0917544947
1.0389454370
1.0940014615
1.1417223080
1.1470780882
1.1484223731
1.1474176405
1.1456152772
1.1441899814
1.1441204700
1.1461578825
1.1507401018
1.1579534980
1.1675694950
1.1791346265
1.1920703585
1.2057567303
1.2196004253
1.2330825206
1.2457907874
1.2574422891
1.2678843170
1.2770783584
1.2850771780
1.2919926720
1.2979644569
1.3031372848
1.3076424857
1.3115862855
1.3150468629
1.3180740015
1.3206917235
1.3229049168
1.3247053215
1.3260770929
1.3270033455
1.3274704632
1.3284278205
1.1482886591
1.1463264007
1.1464192672
1.1466025431
1.1468724819
1.1472224782
1.1476425721
1.1481200271
1.1486369121
1.1491684526
1.1496822028
1.1501334023
1.1504600925
1.1505776210
1.1503656767
1.1496498198
1.1481739419
1.1455493385
1.1411787927
1.1341633966
1.1232694172
1.1073334709
1.0755836034
1.1047322362
1.1366265041
1.1455417418
1.1490796456
1.1496816823
1.1489002947
1.1479813313
1.1480341655
1.1499504659
1.1542841508
1.1612028014
1.1705294037
1.1818431182
1.1945849962
1.2081423021
1.2219174203
1.2353773285
1.2480894206
1.2597501464
1.2701904551
1.2793617023
1.2873134654
1.2941598739
1.3000457029
1.3051221854
1.3095269423
1.3133712474
1.3167371294
1.3196771303
1.3222170703
1.3243631946
1.3261083863
1.3274377153
1.3283351257
1.3287876692
1.3297778205
1.1483142376
1.1463435724
1.1464312225
1.1466040144
1.1468581961
1.1471870984
1.1475806321
1.1480260068
1.1485052504
1.1489936880
1.1494595985
1.1498600168
1.1501369804
1.1502144611
1.1499890413
1.1493184126
1.1480068482
1.1457760313
1.1422264968
1.1367987628
1.1287680643
1.1173913052
1.0966650248
1.1123151058
1.1347811198
1.1455414298
1.1510978121
1.1532422562
1.1534093374
1.1529245496
1.1530372587
1.1547798039
1.1588177347
1.1653924921
1.1743680008
1.1853429841
1.1977652939
1.2110220333
1.2245135464
1.2377057630
1.2501667662
1.2615956283
1.2718265222
1.2808128800
1.2886048974
1.2953157900
1.3010879947
1.3060698216
1.3103958198
1.3141741898
1.3174843561
1.3203768741
1.3228761448
1.3249877233
1.3267044333
1.3280116427
1.3288938412
1.3293386358
1.3303003532
1.1483794573
1.1464394533
1.1465275951
1.1467011983
1.1469562441
1.1472856489
1.1476787916
1.1481223915
1.1485980671
1.1490810043
1.1495400745
1.1499340423
1.1502086319
1.1502950273
1.1501026258
1.1495112778
1.1483633885
1.1464448870
1.1434628760
1.1390282062
1.1326612411
1.1239230562
1.1093746170
1.1179698863
1.1346307117
1.1460259183
1.1530962636
1.1565735396
1.1576116556
1.1575585204
1.1577788577
1.1594280339
1.1632681185
1.1695991239
1.1783079540
1.1889946627
1.2010963266
1.2139886773
1.2270700932
1.2398182165
1.2518243399
1.2628160655
1.2726536517
1.2813082115
1.2888373856
1.2953527062
1.3009884437
1.3058815897
1.3101547630
1.3139051479
1.3172030885
1.3200922820
1.3225923265
1.3247058557
1.3264242512
1.3277324019
1.3286149252
1.3290597737
1.3299326419
1.1485038518
1.1466332792
1.1467277974
1.1469137984
1.1471865942
1.1475381079
1.1479564381
1.1484268645
1.1489294976
1.1494381287
1.1499206861
1.1503357414
1.1506300395
1.1507377798
1.1505742622
1.1500296645
1.1489638347
1.1471912539
1.1444652377
1.1404700565
1.1348367871
1.1273066788
1.1156336984
1.1212183420
1.1351007429
1.1466526825
1.1545867075
1.1589349223
1.1606137556
1.1609497993
1.1613627748
1.1630759917
1.1669053701
1.1731797582
1.1817860780
1.1923050649
1.2041484900
1.2166733715
1.2292790837
1.2414680586
1.2528748188
1.2632772937