<VTKFile type="UnstructuredGrid" version="0.1">
	<UnstructuredGrid>
		<Piece NumberOfPoints="13548" NumberOfCells="3387">
			<CellData>
				<DataArray type="Int32" Name="ghost" NumberOfComponents="1" Format="ascii">
1
1
1
1
1
1
1
1
1
1
1
1
1
1
1
1
1
1
1
1
1
1
1
1
1
1
1
1
1
1
1
1
1
1
1
1
1
1
1
1
1
1
1
1
1
1
1
1
1
1
1
1
1
1
1
1
1
1
0
0
0
0
0
0
0
0
0
0
0
0
0
0
0
0
0
0
0
0
1
1
0
0
0
0
0
0
0
0
0
0
0
0
0
0
0
0
0
0
0
0
0
0
0
0
0
0
0
0
0
0
0
0
0
1
1
0
0
0
0
0
0
0
0
0
0
0
0
0
0
0
0
0
0
0
0
1
1
0
0
0
0
0
0
0
0
0
0
0
0
0
0
0
0
0
0
0
0
0
0
0
0
0
0
0
0
0
0
0
0
0
1
1
0
0
0
0
0
0
0
0
0
0
0
0
0
0
0
0
0
0
0
0
1
1
0
0
0
0
0
0
0
0
0
0
0
0
0
0
0
0
0
0
0
0
0
0
0
0
0
0
0
0
0
0
0
0
0
1
1
0
0
0
0
0
0
0
0
0
0
0
0
0
0
0
0
0
0
0
0
1
1
0
0
0
0
0
0
0
0
0
0
0
0
0
0
0
0
0
0
0
0
0
0
0
0
0
0
0
0
0
0
0
0
0
1
1
0
0
0
0
0
0
0
0
0
0
0
0
0
0
0
0
0
0
0
0
1
1
0
0
0
0
0
0
0
0
0
0
0
0
0
0
0
0
0
0
0
0
0
0
0
0
0
0
0
0
0
0
0
0
0
1
1
0
0
0
0
0
0
0
0
0
0
0
0
0
0
0
0
0
0
0
0
1
1
0
0
0
0
0
0
0
0
0
0
0
0
0
0
0
0
0
0
0
0
0
0
0
0
0
0
0
0
0
0
0
0
0
1
1
0
0
0
0
0
0
0
0
0
0
0
0
0
0
0
0
0
0
0
0
1
1
0
0
0
0
0
0
0
0
0
0
0
0
0
0
0
0
0
0
0
0
0
0
0
0
0
0
0
0
0
0
0
0
0
1
1
0
0
0
0
0
0
0
0
0
0
0
0
0
0
0
0
0
0
0
0
1
1
0
0
0
0
0
0
0
0
0
0
0
0
0
0
0
0
0
0
0
0
0
0
0
0
0
0
0
0
0
0
0
0
0
1
1
0
0
0
0
0
0
0
0
0
0
0
0
0
0
0
0
0
0
0
0
1
1
0
0
0
0
0
0
0
0
0
0
0
0
0
0
0
0
0
0
0
0
0
0
0
0
0
0
0
0
0
0
0
0
0
1
1
0
0
0
0
0
0
0
0
0
0
0
0
0
0
0
0
0
0
0
0
1
1
0
0
0
0
0
0
0
0
0
0
0
0
0
0
0
0
0
0
0
0
0
0
0
0
0
0
0
0
0
0
0
0
0
1
1
0
0
0
0
0
0
0
0
0
0
0
0
0
0
0
0
0
0
0
0
1
1
0
0
0
0
0
0
0
0
0
0
0
0
0
0
0
0
0
0
0
0
0
0
0
0
0
0
0
0
0
0
0
0
0
1
1
0
0
0
0
0
0
0
0
0
0
0
0
0
0
0
0
0
0
0
0
1
1
0
0
0
0
0
0
0
0
0
0
0
0
0
0
0
0
0
0
0
0
0
0
0
0
0
0
0
0
0
0
0
0
0
1
1
0
0
0
0
0
0
0
0
0
0
0
0
0
0
0
0
0
0
0
0
1
1
0
0
0
0
0
0
0
0
0
0
0
0
0
0
0
0
0
0
0
0
0
0
0
0
0
0
0
0
0
0
0
0
0
1
1
0
0
0
0
0
0
0
0
0
0
0
0
0
0
0
0
0
0
0
0
1
1
0
0
0
0
0
0
0
0
0
0
0
0
0
0
0
0
0
0
0
0
0
0
0
0
0
0
0
0
0
0
0
0
0
1
1
0
0
0
0
0
0
0
0
0
0
0
0
0
0
0
0
0
0
0
0
1
1
0
0
0
0
0
0
0
0
0
0
0
0
0
0
0
0
0
0
0
0
0
0
0
0
0
0
0
0
0
0
0
0
0
1
1
0
0
0
0
0
0
0
0
0
0
0
0
0
0
0
0
0
0
0
0
1
1
0
0
0
0
0
0
0
0
0
0
0
0
0
0
0
0
0
0
0
0
0
0
0
0
0
0
0
0
0
0
0
0
0
1
1
0
0
0
0
0
0
0
0
0
0
0
0
0
0
0
0
0
0
0
0
1
1
0
0
0
0
0
0
0
0
0
0
0
0
0
0
0
0
0
0
0
0
0
0
0
0
0
0
0
0
0
0
0
0
0
1
1
0
0
0
0
0
0
0
0
0
0
0
0
0
0
0
0
0
0
0
0
1
1
0
0
0
0
0
0
0
0
0
0
0
0
0
0
0
0
0
0
0
0
0
0
0
0
0
0
0
0
0
0
0
0
0
1
1
0
0
0
0
0
0
0
0
0
0
0
0
0
0
0
0
0
0
0
0
1
1
0
0
0
0
0
0
0
0
0
0
0
0
0
0
0
0
0
0
0
0
0
0
0
0
0
0
0
0
0
0
0
0
0
1
1
0
0
0
0
0
0
0
0
0
0
0
0
0
0
0
0
0
0
0
0
1
1
0
0
0
0
0
0
0
0
0
0
0
0
0
0
0
0
0
0
0
0
0
0
0
0
0
0
0
0
0
0
0
0
0
1
1
0
0
0
0
0
0
0
0
0
0
0
0
0
0
0
0
0
0
0
0
1
1
0
0
0
0
0
0
0
0
0
0
0
0
0
0
0
0
0
0
0
0
0
0
0
0
0
0
0
0
0
0
0
0
0
1
1
0
0
0
0
0
0
0
0
0
0
0
0
0
0
0
0
0
0
0
0
1
1
0
0
0
0
0
0
0
0
0
0
0
0
0
0
0
0
0
0
0
0
0
0
0
0
0
0
0
0
0
0
0
0
0
1
1
0
0
0
0
0
0
0
0
0
0
0
0
0
0
0
0
0
0
0
0
1
1
0
0
0
0
0
0
0
0
0
0
0
0
0
0
0
0
0
0
0
0
0
0
0
0
0
0
0
0
0
0
0
0
0
1
1
0
0
0
0
0
0
0
0
0
0
0
0
0
0
0
0
0
0
0
0
1
1
0
0
0
0
0
0
0
0
0
0
0
0
0
0
0
0
0
0
0
0
0
0
0
0
0
0
0
0
0
0
0
0
0
1
1
0
0
0
0
0
0
0
0
0
0
0
0
0
0
0
0
0
0
0
0
0
1
1
0
0
0
0
0
0
0
0
0
0
0
0
0
0
0
0
0
0
0
0
0
0
0
0
0
0
0
0
0
0
0
0
0
0
1
1
0
0
0
0
0
0
0
0
0
0
0
0
0
0
0
0
0
0
0
0
0
0
0
0
0
0
0
0
0
0
0
0
0
0
0
0
0
0
0
0
0
0
0
0
0
0
0
0
0
0
0
0
0
0
0
0
0
1
1
0
0
0
0
0
0
0
0
0
0
0
0
0
0
0
0
0
0
0
0
0
0
0
0
0
0
0
0
0
0
0
0
0
0
0
0
0
0
0
0
0
0
0
0
0
0
0
0
0
0
0
0
0
0
0
0
0
1
1
0
0
0
0
0
0
0
0
0
0
0
0
0
0
0
0
0
0
0
0
0
0
0
0
0
0
0
0
0
0
0
0
0
0
0
0
0
0
0
0
0
0
0
0
0
0
0
0
0
0
0
0
0
0
0
0
0
1
1
0
0
0
0
0
0
0
0
0
0
0
0
0
0
0
0
0
0
0
0
0
0
0
0
0
0
0
0
0
0
0
0
0
0
0
0
0
0
0
0
0
0
0
0
0
0
0
0
0
0
0
0
0
0
0
0
0
1
1
0
0
0
0
0
0
0
0
0
0
0
0
0
0
0
0
0
0
0
0
0
0
0
0
0
0
0
0
0
0
0
0
0
0
0
0
0
0
0
0
0
0
0
0
0
0
0
0
0
0
0
0
0
0
0
0
0
1
1
0
0
0
0
0
0
0
0
0
0
0
0
0
0
0
0
0
0
0
0
0
0
0
0
0
0
0
0
0
0
0
0
0
0
0
0
0
0
0
0
0
0
0
0
0
0
0
0
0
0
0
0
0
0
0
0
0
1
1
0
0
0
0
0
0
0
0
0
0
0
0
0
0
0
0
0
0
0
0
0
0
0
0
0
0
0
0
0
0
0
0
0
0
0
0
0
0
0
0
0
0
0
0
0
0
0
0
0
0
0
0
0
0
0
0
0
1
1
0
0
0
0
0
0
0
0
0
0
0
0
0
0
0
0
0
0
0
0
0
0
0
0
0
0
0
0
0
0
0
0
0
0
0
0
0
0
0
0
0
0
0
0
0
0
0
0
0
0
0
0
0
0
0
0
0
1
1
0
0
0
0
0
0
0
0
0
0
0
0
0
0
0
0
0
0
0
0
0
0
0
0
0
0
0
0
0
0
0
0
0
0
0
0
0
0
0
0
0
0
0
0
0
0
0
0
0
0
0
0
0
0
0
0
0
1
1
0
0
0
0
0
0
0
0
0
0
0
0
0
0
0
0
0
0
0
0
0
0
0
0
0
0
0
0
0
0
0
0
0
0
0
0
0
0
0
0
0
0
0
0
0
0
0
0
0
0
0
0
0
0
0
0
0
1
1
0
0
0
0
0
0
0
0
0
0
0
0
0
0
0
0
0
0
0
0
0
1
1
0
0
0
0
0
0
0
0
0
0
0
0
0
0
0
0
0
0
0
0
0
0
0
0
0
0
0
0
0
0
0
0
0
0
1
1
0
0
0
0
0
0
0
0
0
0
0
0
0
0
0
0
0
0
0
0
1
1
0
0
0
0
0
0
0
0
0
0
0
0
0
0
0
0
0
0
0
0
0
0
0
0
0
0
0
0
0
0
0
0
0
1
1
0
0
0
0
0
0
0
0
0
0
0
0
0
0
0
0
0
0
0
0
1
1
0
0
0
0
0
0
0
0
0
0
0
0
0
0
0
0
0
0
0
0
0
0
0
0
0
0
0
0
0
0
0
0
0
1
1
0
0
0
0
0
0
0
0
0
0
0
0
0
0
0
0
0
0
0
0
1
1
0
0
0
0
0
0
0
0
0
0
0
0
0
0
0
0
0
0
0
0
0
0
0
0
0
0
0
0
0
0
0
0
0
1
1
0
0
0
0
0
0
0
0
0
0
0
0
0
0
0
0
0
0
0
0
1
1
0
0
0
0
0
0
0
0
0
0
0
0
0
0
0
0
0
0
0
0
0
0
0
0
0
0
0
0
0
0
0
0
0
1
1
0
0
0
0
0
0
0
0
0
0
0
0
0
0
0
0
0
0
0
0
1
1
0
0
0
0
0
0
0
0
0
0
0
0
0
0
0
0
0
0
0
0
0
0
0
0
0
0
0
0
0
0
0
0
0
1
1
0
0
0
0
0
0
0
0
0
0
0
0
0
0
0
0
0
0
0
0
1
1
0
0
0
0
0
0
0
0
0
0
0
0
0
0
0
0
0
0
0
0
0
0
0
0
0
0
0
0
0
0
0
0
0
1
1
0
0
0
0
0
0
0
0
0
0
0
0
0
0
0
0
0
0
0
0
1
1
0
0
0
0
0
0
0
0
0
0
0
0
0
0
0
0
0
0
0
0
0
0
0
0
0
0
0
0
0
0
0
0
0
1
1
0
0
0
0
0
0
0
0
0
0
0
0
0
0
0
0
0
0
0
0
1
1
0
0
0
0
0
0
0
0
0
0
0
0
0
0
0
0
0
0
0
0
0
0
0
0
0
0
0
0
0
0
0
0
0
1
1
0
0
0
0
0
0
0
0
0
0
0
0
0
0
0
0
0
0
0
0
1
1
0
0
0
0
0
0
0
0
0
0
0
0
0
0
0
0
0
0
0
0
0
0
0
0
0
0
0
0
0
0
0
0
0
1
1
0
0
0
0
0
0
0
0
0
0
0
0
0
0
0
0
0
0
0
0
1
1
0
0
0
0
0
0
0
0
0
0
0
0
0
0
0
0
0
0
0
0
0
0
0
0
0
0
0
0
0
0
0
0
0
1
1
0
0
0
0
0
0
0
0
0
0
0
0
0
0
0
0
0
0
0
0
1
1
0
0
0
0
0
0
0
0
0
0
0
0
0
0
0
0
0
0
0
0
0
0
0
0
0
0
0
0
0
0
0
0
0
1
1
0
0
0
0
0
0
0
0
0
0
0
0
0
0
0
0
0
0
0
0
1
1
0
0
0
0
0
0
0
0
0
0
0
0
0
0
0
0
0
0
0
0
0
0
0
0
0
0
0
0
0
0
0
0
0
1
1
0
0
0
0
0
0
0
0
0
0
0
0
0
0
0
0
0
0
0
0
1
1
0
0
0
0
0
0
0
0
0
0
0
0
0
0
0
0
0
0
0
0
0
0
0
0
0
0
0
0
0
0
0
0
0
1
1
0
0
0
0
0
0
0
0
0
0
0
0
0
0
0
0
0
0
0
0
1
1
0
0
0
0
0
0
0
0
0
0
0
0
0
0
0
0
0
0
0
0
0
0
0
0
0
0
0
0
0
0
0
0
0
1
1
0
0
0
0
0
0
0
0
0
0
0
0
0
0
0
0
0
0
0
0
1
1
0
0
0
0
0
0
0
0
0
0
0
0
0
0
0
0
0
0
0
0
0
0
0
0
0
0
0
0
0
0
0
0
0
1
1
0
0
0
0
0
0
0
0
0
0
0
0
0
0
0
0
0
0
0
0
1
1
0
0
0
0
0
0
0
0
0
0
0
0
0
0
0
0
0
0
0
0
0
0
0
0
0
0
0
0
0
0
0
0
0
1
1
0
0
0
0
0
0
0
0
0
0
0
0
0
0
0
0
0
0
0
0
1
1
0
0
0
0
0
0
0
0
0
0
0
0
0
0
0
0
0
0
0
0
0
0
0
0
0
0
0
0
0
0
0
0
0
1
1
0
0
0
0
0
0
0
0
0
0
0
0
0
0
0
0
0
0
0
0
1
1
0
0
0
0
0
0
0
0
0
0
0
0
0
0
0
0
0
0
0
0
0
0
0
0
0
0
0
0
0
0
0
0
0
1
1
0
0
0
0
0
0
0
0
0
0
0
0
0
0
0
0
0
0
0
0
1
1
0
0
0
0
0
0
0
0
0
0
0
0
0
0
0
0
0
0
0
0
0
0
0
0
0
0
0
0
0
0
0
0
0
1
1
0
0
0
0
0
0
0
0
0
0
0
0
0
0
0
0
0
0
0
0
1
1
0
0
0
0
0
0
0
0
0
0
0
0
0
0
0
0
0
0
0
0
0
0
0
0
0
0
0
0
0
0
0
0
0
1
1
0
0
0
0
0
0
0
0
0
0
0
0
0
0
0
0
0
0
0
0
1
1
0
0
0
0
0
0
0
0
0
0
0
0
0
0
0
0
0
0
0
0
0
0
0
0
0
0
0
0
0
0
0
0
0
1
1
1
1
1
1
1
1
1
1
1
1
1
1
1
1
1
1
1
1
1
1
1
1
1
1
1
1
1
1
1
1
1
1
1
1
1
1
1
1
1
1
1
1
1
1
1
1
1
1
1
1
1
1
1
1
1
1
				</DataArray>
				<DataArray type="Float64" Name="h" NumberOfComponents="1" Format="ascii">
1.2592930113
1.2558920446
1.2555415716
1.2548595547
1.2538838772
1.2526689849
1.2512834350
1.2498064474
1.2483219220
1.2469122934
1.2456515306
1.2445977659
1.2437878324
1.2432335026
1.2429209891
1.2428140834
1.2428596528
1.2429961087
1.2431623948
1.2433054276
1.2433868650
1.2433868650
1.1124906496
1.1112154031
1.1116178292
1.1124288504
1.1136663303
1.1153684208
1.1176031756
1.1204772700
1.1241403485
1.1287825257
1.1346213424
1.1418721801
1.1506990007
1.1611487746
1.1730841809
1.1861412163
1.1997446261
1.2131962200
1.2258105778
1.2370492585
1.2466029015
1.2543973954
1.2605442206
1.2652669166
1.2688307071
1.2714930891
1.2734759916
1.2749550359
1.2760608668
1.2768856163
1.2774912866
1.2779181722
1.2781911720
1.2783244158
1.2783244158
1.2558920446
1.2524957298
1.2522215996
1.2516893324
1.2509310662
1.2499929244
1.2489329061
1.2478179252
1.2467184163
1.2457028267
1.2448313448
1.2441492950
1.2436823817
1.2434336061
1.2433833159
1.2434925841
1.2437086181
1.2439727238
1.2442283552
1.2444273811
1.2445356310
1.2433868650
1.1112154031
1.1099463563
1.1103769956
1.1112483158
1.1125858206
1.1144388575
1.1168896603
1.1200607960
1.1241171225
1.1292590806
1.1357032454
1.1436447498
1.1532004095
1.1643406094
1.1768306706
1.1902109825
1.2038435904
1.2170255787
1.2291284195
1.2397116909
1.2485722790
1.2557224415
1.2613266668
1.2656286056
1.2688893749
1.2713486254
1.2732052884
1.2746125691
1.2756822535
1.2764921441
1.2770942661
1.2775225202
1.2777980370
1.2779329543
1.2783244158
1.2560541619
1.2526816922
1.2524121554
1.2518887786
1.2511430816
1.2502202182
1.2491768427
1.2480781629
1.2469926301
1.2459865912
1.2451182628
1.2444314266
1.2439509732
1.2436800588
1.2436002592
1.2436748896
1.2438541932
1.2440829590
1.2443081733
1.2444848753
1.2445813061
1.2434725420
1.1108711092
1.1096187778
1.1100601913
1.1109529775
1.1123225310
1.1142180201
1.1167210492
1.1199523237
1.1240724962
1.1292742328
1.1357620100
1.1437152158
1.1532344376
1.1642793765
1.1766174306
1.1898082117
1.2032474119
1.2162697141
1.2282750750
1.2388340134
1.2477366971
1.2549773209
1.2606988929
1.2651260826
1.2685062990
1.2710710587
1.2730157383
1.2744931551
1.2756165770
1.2764661647
1.2770964837
1.2775437331
1.2778308721
1.2779712866
1.2783603202
1.2563673527
1.2530408750
1.2527803384
1.2522743661
1.2515532381
1.2506601750
1.2496491653
1.2485820553
1.2475234152
1.2465355097
1.2456727528
1.2449759830
1.2444685770
1.2441540543
1.2440164196
1.2440233570
1.2441309942
1.2442908611
1.2444567863
1.2445899679
1.2446633519
1.2436342735
1.1101892794
1.1089698669
1.1094328071
1.1103684222
1.1118017829
1.1137815587
1.1163879340
1.1197377408
1.1239831780
1.1293015953
1.1358740067
1.1438496951
1.1532986295
1.1641606348
1.1762071335
1.1890335279
1.2020982039
1.2148066807
1.2266140852
1.2371142709
1.2460874475
1.2534952809
1.2594402570
1.2641100836
1.2677246818
1.2704986696
1.2726195222
1.2742385444
1.2754713730
1.2764024432
1.2770910937
1.2775779200
1.2778894156
1.2780413953
1.2784247103
1.2568096112
1.2535479939
1.2533005081
1.2528197370
1.2521340976
1.2512839286
1.2503192819
1.2492970919
1.2482763171
1.2473133873
1.2464573518
1.2457449706
1.2451976132
1.2448194633
1.2445980907
1.2445074477
1.2445120331
1.2445729417
1.2446537285
1.2447243929
1.2447646535
1.2438541651
1.1091828373
1.1080115973
1.1085067387
1.1095062742
1.1110345371
1.1131391209
1.1158977043
1.1194209749
1.1238483786
1.1293348861
1.1360280938
1.1440353900
1.1533850738
1.1639905681
1.1756290523
1.1879436384
1.2004762861
1.2127285580
1.2242336309
1.2346230643
1.2436698569
1.2512953839
1.2575474771
1.2625612150
1.2665154417
1.2695980895
1.2719829240
1.2738171848
1.2752185750
1.2762768213
1.2770576328
1.2776076752
1.2779584206
1.2781291455
1.2785015439
1.2573471920
1.2541647179
1.2539338511
1.2534851087
1.2528444254
1.2520483398
1.2511417783
1.2501753688
1.2492009696
1.2482677430
1.2474181767
1.2466841690
1.2460848510
1.2456254704
1.2452981855
1.2450847827
1.2449601079
1.2448970418
1.2448711622
1.2448634379
1.2448621273
1.2441076509
1.1078691082
1.1067599939
1.1072978733
1.1083819778
1.1100352118
1.1123031694
1.1152595591
1.1190063419
1.1236659162
1.1293645471
1.1362084126
1.1442546089
1.1534829506
1.1637772200
1.1749218328
1.1866139511
1.1984900015
1.2101624002
1.2212593209
1.2314654587
1.2405561124
1.2484133645
1.2550235227
1.2604574641
1.2648404340
1.2683229579
1.2710574321
1.2731824743
1.2748157889
1.2760520267
1.2769638593
1.2776050126
1.2780129437
1.2782111721
1.2785641717
1.2579343665
1.2548398047
1.2546285679
1.2542175691
1.2536296571
1.2528967050
1.2520574431
1.2511550039
1.2502329603
1.2493321597
1.2484877542
1.2477263858
1.2470649863
1.2465103392
1.2460600383
1.2457048440
1.2454313005
1.2452255719
1.2450768580
1.2449787154
1.2449293741
1.2443658749
1.1062677809
1.1052332228
1.1058241446
1.1070127901
1.1088196105
1.1112868912
1.1144825114
1.1184968481
1.1234310880
1.1293774585
1.1363950441
1.1444860066
1.1535793007
1.1635291150
1.1741283265
1.1851291004
1.1962633565
1.2072581051
1.2178457030
1.2277782119
1.2368481746
1.2449085297
1.2518862116
1.2577825396
1.2626593305
1.2666188533
1.2697827261
1.2722740607
1.2742062461
1.2756766175
1.2767639824
1.2775291145
1.2780158046
1.2782522044
1.2785722585
1.2585141040
1.2555102797
1.2553211159
1.2549524495
1.2544234751
1.2537606173
1.2529954949
1.2521628060
1.2512969968
1.2504299678
1.2495891950
1.2487960434
1.2480655143
1.2474064098
1.2468223589
1.2463137356
1.2458794370
1.2455196203
1.2452379605
1.2450416515
1.2449400117
1.2445988367
1.1043986077
1.1034494426
1.1041033163
1.1054154375
1.1074024361
1.1101016229
1.1135728724
1.1178919748
1.1231350702
1.1293562416
1.1365642823
1.1447054250
1.1536593676
1.1632534878
1.1732900823
1.1835729282
1.1939223391
1.2041736712
1.2141639922
1.2237229349
1.2326775016
1.2408691003
1.2481769183
1.2545354937
1.2599382822
1.2644299607
1.2680910227
1.2710199942
1.2733191108
1.2750838485
1.2763964697
1.2773234140
1.2779142184
1.2782014836
1.2784678232
1.2590190624
1.2561030018
1.2559378429
1.2556150984
1.2551497980
1.2545622475
1.2538762285
1.2531173441
1.2523104307
1.2514782150
1.2506405509
1.2498138141
1.2490114909
1.2482448128
1.2475237267
1.2468583127
1.2462597553
1.2457421204
1.2453236831
1.2450258049
1.2448697809
1.2447774559
1.1022782463
1.1014237639
1.1021499266
1.1036030371
1.1057942139
1.1087538739
1.1125315584
1.1171855381
1.1227636312
1.1292790600
1.1366895161
1.1448874222
1.1537078445
1.1629559462
1.1724440778
1.1820213489
1.1915839231
1.2010617480
1.2103889514
1.2194766148
1.2282016356
1.2364153509
1.2439688221
1.2507415984
1.2566609725
1.2617085498
1.2659140901
1.2693410810
1.2720713977
1.2741915764
1.2757824119
1.2769128643
1.2776363716
1.2779890044
1.2781713015
1.2593741775
1.2565377980
1.2563981746
1.2561241743
1.2557262337
1.2552180128
1.2546149457
1.2539331681
1.2531877672
1.2523924262
1.2515597451
1.2507016036
1.2498304285
1.2489601289
1.2481068792
1.2472899940
1.2465321782
1.2458605743
1.2453075232
1.2449086752
1.2446981184
1.2448752467
1.0999173711
1.0991654729
1.0999724720
1.1015822013
1.1039983311
1.1072423980
1.1113513865
1.1163634647
1.1222956540
1.1291190454
1.1367414864
1.1450059831
1.1537093894
1.1626399945
1.1716204091
1.1805373507
1.1893477073
1.1980579567
1.2066853134
1.2152189813
1.2235957973
1.2316976315
1.2393715089
1.2464618006
1.2528403141
1.2584264644
1.2631928433
1.2671577699
1.2703720200
1.2729037541
1.2748249449
1.2762018316
1.2770883177
1.2775219208
1.2775782049
1.2595009645
1.2567322428
1.2566194306
1.2563965372
1.2560690831
1.2556437210
1.2551272541
1.2545262566
1.2538462255
1.2530922094
1.2522701266
1.2513879373
1.2504573920
1.2494950829
1.2485229146
1.2475684176
1.2466644045
1.2458495945
1.2451693043
1.2446733377
1.2444095500
1.2448699983
1.0973178644
1.0966753438
1.0975706413
1.0993501171
1.1020079570
1.1055550657
1.1100141103
1.1154012540
1.1217012476
1.1288431518
1.1366877677
1.1450343260
1.1536483884
1.1623064235
1.1708409320
1.1791682209
1.1872906336
1.1952719918
1.2031950728
1.2111175593
1.2190389115
1.2268869179
1.2345282686
1.2417967849
1.2485274228
1.2545863435
1.2598883749
1.2643993363
1.2681283370
1.2711142319
1.2734106201
1.2750735643
1.2761521649
1.2766820930
1.2765575646
1.2593224773
1.2566068951
1.2565220708
1.2563525093
1.2560986144
1.2557598476
1.2553343212
1.2548191978
1.2542107745
1.2535060493
1.2527049141
1.2518119467
1.2508384315
1.2498033507
1.2487334332
1.2476629095
1.2466327257
1.2456911104
1.2448948298
1.2443076359
1.2439925920
1.2447430881
1.0944688666
1.0939417926
1.0949314932
1.0968907383
1.0998023077
1.1036653643
1.1084873878
1.1142616444
1.1209402565
1.1284114848
1.1364927279
1.1449452392
1.1535095140
1.1619541087
1.1701203195
1.1779464856
1.1854667020
1.1927843855
1.2000297549
1.2073152783
1.2146985455
1.2221607821
1.2296069232
1.2368848977
1.2438165406
1.2502315882
1.2559942615
1.2610160904
1.2652566226
1.2687147185
1.2714147851
1.2733933790
1.2746877026
1.2753269110
1.2749546353
1.2587693898
1.2560914135
1.2560357799
1.2559218972
1.2557449835
1.2554973066
1.2551684307
1.2547464532
1.2542190117
1.2535757079
1.2528110292
1.2519265634
1.2509330957
1.2498513824
1.2487116928
1.2475530176
1.2464219997
1.2453738394
1.2444748888
1.2438027574
1.2434380261
1.2444781671
1.0913431333
1.0909373521
1.0920259418
1.0941712250
1.0973430789
1.1015289945
1.1067217834
1.1128922312
1.1199605843
1.1277762606
1.1361169348
1.1447107784
1.1532777586
1.1615806563
1.1694676313
1.1768923518
1.1839094607
1.1906473112
1.1972673075
1.2039217806
1.2107167768
1.2176863622
1.2247841116
1.2318918443
1.2388424407
1.2454513425
1.2515471316
1.2569928164
1.2616959282
1.2656074148
1.2687122215
1.2710172554
1.2725394029
1.2732954364
1.2726001183
1.2577864791
1.2551308758
1.2551057388
1.2550501606
1.2549542417
1.2548032243
1.2545784427
1.2542594152
1.2538257288
1.2532602162
1.2525524524
1.2517012098
1.2507164601
1.2496198078
1.2484434591
1.2472288952
1.2460256530
1.2448929623
1.2439046006
1.2431521997
1.2427375342
1.2440602135
1.0878935863
1.0876153771
1.0888054560
1.0911385005
1.0945708707
1.0990803607
1.1046475907
1.1112228400
1.1186961934
1.1268803459
1.1355160710
1.1443014713
1.1529380588
1.1611828070
1.1688879106
1.1760166544
1.1826358457
1.1888879692
1.1949528203
1.2010089902
1.2071990183
1.2136029896
1.2202248090
1.2269917911
1.2337675168
1.2403760395
1.2466306636
1.2523593431
1.2574225883
1.2617210373
1.2651930169
1.2678067548
1.2695503023
1.2704216480
1.2693275005
1.2563379324
1.2536907048
1.2536974726
1.2537031046
1.2536927827
1.2536450496
1.2535334688
1.2533295499
1.2530054350
1.2525377115
1.2519113388
1.2511221899
1.2501788265
1.2491025060
1.2479255284
1.2466893654
1.2454433656
1.2442474646
1.2431803560
1.2423481778
1.2418795845
1.2434717542
1.0840484044
1.0839052824
1.0851975505
1.0877149280
1.0914011457
1.0962290814
1.1021721825
1.1091638819
1.1170664452
1.1256573953
1.1346416232
1.1436874132
1.1524768697
1.1607587749
1.1683856703
1.1753257679
1.1816524307
1.1875154229
1.1931043028
1.1986133778
1.2042101948
1.2100108197
1.2160642900
1.2223461481
1.2287624073
1.2351645196
1.2413718837
1.2471962424
1.2524636569
1.2570295093
1.2607841566
1.2636518112
1.2655850675
1.2665574779
1.2650007078
1.2544117249
1.2517606116
1.2518007075
1.2518705583
1.2519507525
1.2520135990
1.2520254596
1.2519504478
1.2517538134
1.2514062699
1.2508882317
1.2501923240
1.2493248471
1.2483053073
1.2471641020
1.2459400591
1.2446790391
1.2434379322
1.2422972937
1.2413784666
1.2408455022
1.2426890998
1.0797081895
1.0797098345
1.0811035003
1.0837962397
1.0877224359
1.0928587646
1.0991796306
1.1066069277
1.1149775301
1.1240338780
1.1334432140
1.1428407243
1.1518847686
1.1603112182
1.1679685789
1.1748263739
1.1809615073
1.1865278481
1.1917202660
1.1967421036
1.2017768736
1.2069663491
1.2123957045
1.2180843291
1.2239837063
1.2299839672
1.2359282373
1.2416320275
1.2469047944
1.2515691715
1.2554737326
1.2584995347
1.2605614080
1.2616053651
1.2595502949
1.2520222701
1.2493568905
1.2494315984
1.2495684661
1.2497439305
1.2499246557
1.2500704591
1.2501386842
1.2500881617
1.2498839369
1.2495017232
1.2489303091
1.2481726733
1.2472450258
1.2461737964
1.2449924812
1.2437399673
1.2424657883
1.2412483425
1.2402246583
1.2396065043
1.2416794442
1.0747469595
1.0749062363
1.0764001530
1.0792535876
1.0833986583
1.0888299171
1.0955344480
1.1034292811
1.1123276152
1.1219343835
1.1318736431
1.1417400443
1.1511603444
1.1598506871
1.1676508066
1.1745291664
1.1805656439
1.1859183073
1.1907866607
1.1953802904
1.1998930229
1.2044839804
1.2092647930
1.2142903220
1.2195536029
1.2249864915
1.2304665225
1.2358295768
1.2408875209
1.2454478141
1.2493306587
1.2523822760
1.2544836888
1.2555545959
1.2530100346
1.2492103344
1.2465220594
1.2466323095
1.2468383480
1.2471130058
1.2474180019
1.2477073393
1.2479322240
1.2480454627
1.2480064845
1.2477859488
1.2473680186
1.2467511345
1.2459465853
1.2449747616
1.2438611445
1.2426339741
1.2413303391
1.2400207870
1.2388572848
1.2381164988
1.2403935923
1.0690159499
1.0693498873
1.0709453908
1.0739399708
1.0782767191
1.0839891920
1.0910926143
1.0995064447
1.1090200352
1.1192946473
1.1299009204
1.1403810070
1.1503188918
1.1594026496
1.1674587743
1.1744539253
1.1804728255
1.1856807314
1.1902842960
1.1944999722
1.1985296968
1.2025445393
1.2066744588
1.2110005627
1.2155496586
1.2202918779
1.2251423029
1.2299674713
1.2345975958
1.2388435618
1.2425151563
1.2454385790
1.2474716037
1.2485140315
1.2455445529
1.2460413692
1.2433231317
1.2434692547
1.2437454726
1.2441216490
1.2445553552
1.2449955802
1.2453880399
1.2456798602
1.2458247920
1.2457879407
1.2455479086
1.2450972745
1.2444407420
1.2435906200
1.2425617165
1.2413677310
1.2400271336
1.2385941330
1.2372315569
1.2363036338
1.2387572955
1.0623558074
1.0628863673
1.0645929974
1.0677063151
1.0722042809
1.0781895256
1.0857239998
1.0947359261
1.1049870356
1.1160836719
1.1275274981
1.1387918527
1.1494042675
1.1590159523
1.1674369318
1.1746335509
1.1806998129
1.1858137199
1.1901941299
1.1940676364
1.1976449752
1.2011067704
1.2045957984
1.2082115649
1.2120060804
1.2159808142
1.2200857224
1.2242215227
1.2282469510
1.2319918668
1.2352739452
1.2379173797
1.2397718630
1.2407280008
1.2374540918
1.2426019266
1.2398481356
1.2400296233
1.2403753953
1.2408530625
1.2414169324
1.2420118528
1.2425787371
1.2430593654
1.2434016989
1.2435647100
1.2435204220
1.2432541647
1.2427623734
1.2420472557
1.2411102953
1.2399464749
1.2385480135
1.2369398371
1.2352840680
1.2340591928
1.2366598872
1.0546133281
1.0553678760
1.0572141030
1.0604247020
1.0650563213
1.0713212237
1.0793473747
1.0890740246
1.1002254679
1.1123356551
1.1248166057
1.1370534347
1.1485027951
1.1587715222
1.1676525175
1.1751162736
1.1812732016
1.1863217951
1.1904999763
1.1940494675
1.1971924554
1.2001190966
1.2029821023
1.2058939140
1.2089244966
1.2120991116
1.2153969020
1.2187511468
1.2220531147
1.2251615761
1.2279166820
1.2301573511
1.2317410643
1.2325614809
1.2291450553
1.2389940982
1.2362007074
1.2364159764
1.2368285555
1.2374045723
1.2380960250
1.2388445703
1.2395870778
1.2402603750
1.2408065567
1.2411779015
1.2413388340
1.2412660355
1.2409459724
1.2403687008
1.2395196404
1.2383704741
1.2368776618
1.2350171850
1.2329236506
1.2312125598
1.2339288850
1.0456423823
1.0466540257
1.0487085339
1.0520059728
1.0567637435
1.0633531278
1.0719812497
1.0825907554
1.0948497529
1.1081963005
1.1219293849
1.1353267078
1.1477620791
1.1587942281
1.1682024165
1.1759693721
1.1822316465
1.1872175641
1.1911918595
1.1944170078
1.1971301350
1.1995322536
1.2017850655
1.2040108143
1.2062923495
1.2086724140
1.2111531398
1.2136960021
1.2162239733
1.2186285619
1.2207808058
1.2225459394
1.2238015721
1.2244546987
1.2210721660
1.2353299988
1.2324947692
1.2327409176
1.2332149255
1.2338822240
1.2346934950
1.2355882178
1.2365000779
1.2373614715
1.2381087039
1.2386869667
1.2390522289
1.2391712539
1.2390189074
1.2385709956
1.2377938961
1.2366307445
1.2349903319
1.2327703918
1.2300219265
1.2274888439
1.2302870911
1.0352422721
1.0365512435
1.0389725197
1.0423937465
1.0473426548
1.0543931500
1.0638229672
1.0755527575
1.0891667619
1.1039829397
1.1191683980
1.1338811105
1.1474073831
1.1592607525
1.1692156847
1.1772788824
1.1836246534
1.1885209704
1.1922667610
1.1951502383
1.1974265441
1.1993090210
1.2009683061
1.2025348973
1.2041014521
1.2057237219
1.2074215467
1.2091794681
1.2109484033
1.2126513828
1.2141922231
1.2154671267
1.2163799532
1.2168567209
1.2136672612
1.2317263945
1.2288492483
1.2291217974
1.2296486627
1.2303953052
1.2313120244
1.2323371137
1.2334019760
1.2344352296
1.2353677004
1.2361374556
1.2366916249
1.2369863621
1.2369839389
1.2366443654
1.2359122058
1.2346962034
1.2328425582
1.2301279831
1.2264094781
1.2224341640
1.2252770007
1.0228425051
1.0245033520
1.0277178101
1.0315112076
1.0369524361
1.0448126211
1.0553934797
1.0685554445
1.0837782047
1.1002530973
1.1170163558
1.1331108432
1.1477431581
1.1603928361
1.1708432419
1.1791388307
1.1855031478
1.1902521097
1.1937240698
1.1962358231
1.1980618909
1.1994283908
1.2005146162
1.2014583478
1.2023601905
1.2032859418
1.2042691138
1.2053124682
1.2063897831
1.2074510850
1.2084296853
1.2092510587
1.2098450378
1.2101571674
1.2072761068
1.2283007242
1.2253840468
1.2256767172
1.2262441428
1.2270523111
1.2280517700
1.2291802789
1.2303675287
1.2315387248
1.2326193298
1.2335402414
1.2342396941
1.2346634659
1.2347621690
1.2344818071
1.2337472971
1.2324330710
1.2303115221
1.2269830314
1.2219024115
1.2153032375
1.2181463085
1.0060679417
1.0081820361
1.0139619976
1.0193201450
1.0262149538
1.0356165307
1.0478513386
1.0627431091
1.0797086034
1.0978596632
1.1161419647
1.1335121559
1.1491173520
1.1624188903
1.1732226729
1.1816219131
1.1878966688
1.1924144269
1.1955537842
1.1976592486
1.1990232465
1.1998831748
1.2004256329
1.2007944141
1.2010965630
1.2014057680
1.2017660895
1.2021942208
1.2026814083
1.2031985466
1.2037021351
1.2041410860
1.2044664232
1.2046398701
1.2021241166
1.2251709190
1.2222196809
1.2225245506
1.2231167237
1.2239627494
1.2250133600
1.2262054762
1.2274663600
1.2287164150
1.2298734262
1.2308577218
1.2315940872
1.2320126051
1.2320475776
1.2316302291
1.2306758390
1.2290581227
1.2265495070
1.2226806362
1.2164249658
1.2058655376
1.2086493170
0.9735957281
0.9764448592
0.9958095592
1.0072908339
1.0176842761
1.0294878022
1.0435988269
1.0600799748
1.0784573246
1.0978791776
1.1172718277
1.1355413579
1.1517892709
1.1654626282
1.1763904613
1.1847136360
1.1907656489
1.1949608316
1.1977124719
1.1993873403
1.2002911421
1.2006689970
1.2007122311
1.2005687676
1.2003504575
1.2001369886
1.1999803405
1.1999073692
1.1999216832
1.2000086972
1.2001409030
1.2002833055
1.2004015011
1.2004683689
1.1983152723
1.2224567841
1.2194783273
1.2197869902
1.2203869310
1.2212448874
1.2223110631
1.2235202461
1.2247949759
1.2260467720
1.2271785202
1.2280872812
1.2286618742
1.2287763615
1.2282756349
1.2269411572
1.2244251459
1.2201180047
1.2128587260
1.2002700435
1.1770811678
1.1304885494
1.0253912225
0.8789967872
0.9454154054
1.0315933909
1.0204819765
1.0196609715
1.0209945630
1.0260974591
1.0351131845
1.0477608824
1.0635218556
1.0816405862
1.1011048770
1.1207060379
1.1392168669
1.1556299261
1.1693309021
1.1801388791
1.1882194798
1.1939428379
1.1977570154
1.2000995690
1.2013514806
1.2018258198
1.2017712979
1.2013811846
1.2008056051
1.2001596413
1.1995272821
1.1989661413
1.1985099819
1.1981703296
1.1979414869
1.1978054101
1.1977363820
1.1977082932
1.1977003319
1.1958568235
1.2202777173
1.2172812154
1.2175867982
1.2181807152
1.2190298373
1.2200838355
1.2212755067
1.2225231092
1.2237302684
1.2247870310
1.2255714703
1.2259454059
1.2257459548
1.2247696146
1.2227367070
1.2192292226
1.2135786803
1.2046439128
1.1903628248
1.1667754368
1.1257987182
1.0509509919
0.8793763226
0.9465641910
0.9958301666
1.0043875054
1.0123104884
1.0191849863
1.0273553785
1.0378937080
1.0511734015
1.0671235128
1.0852868657
1.1048095317
1.1245242696
1.1431575770
1.1596307506
1.1732808768
1.1839195146
1.1917359228
1.1971340939
1.2005921639
1.2025682147
1.2034542444
1.2035682515
1.2031608240
1.2024260024
1.2015151716
1.2005456406
1.1996043775
1.1987527105
1.1980285767
1.1974477769
1.1970089793
1.1966984443
1.1964944032
1.1963741604
1.1963194568
1.1946963097
1.2187409491
1.2157366028
1.2160345065
1.2166132730
1.2174401232
1.2184647239
1.2196189705
1.2208188232
1.2219633718
1.2229352411
1.2236020081
1.2238116799
1.2233848734
1.2221012971
1.2196686163
1.2156710802
1.2094829810
1.2001044285
1.1858581924
1.1637988841
1.1285585671
1.0721224508
0.9614408727
0.9782124634
0.9998749703
1.0068883146
1.0141998865
1.0217933058
1.0307499011
1.0417413070
1.0551168980
1.0709442877
1.0889452292
1.1083923524
1.1281234150
1.1468094980
1.1633085884
1.1769068366
1.1874018495
1.1950005283
1.2001356883
1.2033114361
1.2050033297
1.2056124279
1.2054605114
1.2047994081
1.2038235354
1.2026850585
1.2015027350
1.2003653122
1.1993360634
1.1984546911
1.1977382424
1.1971861730
1.1967851246
1.1965133551
1.1963480692
1.1962708965
1.1947580157
1.2179269312
1.2149249663
1.2152123628
1.2157703757
1.2165667500
1.2175516321
1.2186570576
1.2197985787
1.2208738721
1.2217629091
1.2223295887
1.2224174890
1.2218431825
1.2203854284
1.2177583920
1.2135693097
1.2072509351
1.1979362411
1.1842444961
1.1639057942
1.1331184136
1.0874375979
1.0101186762
1.0024467480
1.0077320023
1.0117287241
1.0179442923
1.0255741017
1.0347601111
1.0458114443
1.0590222778
1.0745521443
1.0922616336
1.1115304437
1.1312190698
1.1499231128
1.1664336866
1.1799995060
1.1904000165
1.1978523812
1.2028109427
1.2057999646
1.2073086474
1.2077450965
1.2074340279
1.2066282581
1.2055225178
1.2042694820
1.2029886778
1.2017694774
1.2006753856
1.1997456005
1.1989956735
1.1984227207
1.1980104447
1.1977338944
1.1975673299
1.1974901393
1.1959708698
1.2178807993
1.2148904740
1.2151654409
1.2156988129
1.2164588244
1.2173962539
1.2184438317
1.2195178746
1.2205167234
1.2213208977
1.2217950143
1.2217838309
1.2211064536
1.2195474825
1.2168332457
1.2125954708
1.2063158010
1.1972241516
1.1841367472
1.1652001926
1.1375177233
1.0982974758
1.0392306861
1.0203260514
1.0163056010
1.0172818412
1.0221976282
1.0294486146
1.0385119590
1.0494008582
1.0623418785
1.0775421577
1.0949517104
1.1140245182
1.1336388085
1.1523457226
1.1688630591
1.1824194217
1.1927789062
1.2001629380
1.2050391479
1.2079448405
1.2093781834
1.2097520258
1.2093932443
1.2085556326
1.2074344553
1.2061828864
1.2049207469
1.2037370252
1.2026938232
1.2018275783
1.2011495507
1.2006512689
1.2003099914
1.2000941028
1.1999718469
1.1999180532
1.1982819657
1.2186103996
1.2156391432
1.2159000103
1.2164052721
1.2171234327
1.2180057545
1.2189857723
1.2199810976
1.2208919124
1.2216012345
1.2219770477
1.2218684882
1.2211004730
1.2194657892
1.2167028171
1.2124622527
1.2062577083
1.1973758119
1.1847394712
1.1667085556
1.1408327820
1.1050078869
1.0546909479
1.0316540900
1.0235217117
1.0225979525
1.0264322191
1.0330855628
1.0417468540
1.0522854057
1.0648855980
1.0797665416
1.0969113078
1.1158022689
1.1353216022
1.1539969556
1.1705062477
1.1840640156
1.1944262477
1.2018139325
1.2066989822
1.2096234028