<VTKFile type="UnstructuredGrid" version="0.1">
	<UnstructuredGrid>
		<Piece NumberOfPoints="13548" NumberOfCells="3387">
			<CellData>
				<DataArray type="Int32" Name="ghost" NumberOfComponents="1" Format="ascii">
1
1
1
1
1
1
1
1
1
1
1
1
1
1
1
1
1
1
1
1
1
1
1
1
1
1
1
1
1
1
1
1
1
1
1
1
1
1
1
1
1
1
1
1
1
1
1
1
1
1
1
1
1
1
1
1
1
1
0
0
0
0
0
0
0
0
0
0
0
0
0
0
0
0
0
0
0
0
1
1
0
0
0
0
0
0
0
0
0
0
0
0
0
0
0
0
0
0
0
0
0
0
0
0
0
0
0
0
0
0
0
0
0
1
1
0
0
0
0
0
0
0
0
0
0
0
0
0
0
0
0
0
0
0
0
1
1
0
0
0
0
0
0
0
0
0
0
0
0
0
0
0
0
0
0
0
0
0
0
0
0
0
0
0
0
0
0
0
0
0
1
1
0
0
0
0
0
0
0
0
0
0
0
0
0
0
0
0
0
0
0
0
1
1
0
0
0
0
0
0
0
0
0
0
0
0
0
0
0
0
0
0
0
0
0
0
0
0
0
0
0
0
0
0
0
0
0
1
1
0
0
0
0
0
0
0
0
0
0
0
0
0
0
0
0
0
0
0
0
1
1
0
0
0
0
0
0
0
0
0
0
0
0
0
0
0
0
0
0
0
0
0
0
0
0
0
0
0
0
0
0
0
0
0
1
1
0
0
0
0
0
0
0
0
0
0
0
0
0
0
0
0
0
0
0
0
1
1
0
0
0
0
0
0
0
0
0
0
0
0
0
0
0
0
0
0
0
0
0
0
0
0
0
0
0
0
0
0
0
0
0
1
1
0
0
0
0
0
0
0
0
0
0
0
0
0
0
0
0
0
0
0
0
1
1
0
0
0
0
0
0
0
0
0
0
0
0
0
0
0
0
0
0
0
0
0
0
0
0
0
0
0
0
0
0
0
0
0
1
1
0
0
0
0
0
0
0
0
0
0
0
0
0
0
0
0
0
0
0
0
1
1
0
0
0
0
0
0
0
0
0
0
0
0
0
0
0
0
0
0
0
0
0
0
0
0
0
0
0
0
0
0
0
0
0
1
1
0
0
0
0
0
0
0
0
0
0
0
0
0
0
0
0
0
0
0
0
1
1
0
0
0
0
0
0
0
0
0
0
0
0
0
0
0
0
0
0
0
0
0
0
0
0
0
0
0
0
0
0
0
0
0
1
1
0
0
0
0
0
0
0
0
0
0
0
0
0
0
0
0
0
0
0
0
1
1
0
0
0
0
0
0
0
0
0
0
0
0
0
0
0
0
0
0
0
0
0
0
0
0
0
0
0
0
0
0
0
0
0
1
1
0
0
0
0
0
0
0
0
0
0
0
0
0
0
0
0
0
0
0
0
1
1
0
0
0
0
0
0
0
0
0
0
0
0
0
0
0
0
0
0
0
0
0
0
0
0
0
0
0
0
0
0
0
0
0
1
1
0
0
0
0
0
0
0
0
0
0
0
0
0
0
0
0
0
0
0
0
1
1
0
0
0
0
0
0
0
0
0
0
0
0
0
0
0
0
0
0
0
0
0
0
0
0
0
0
0
0
0
0
0
0
0
1
1
0
0
0
0
0
0
0
0
0
0
0
0
0
0
0
0
0
0
0
0
1
1
0
0
0
0
0
0
0
0
0
0
0
0
0
0
0
0
0
0
0
0
0
0
0
0
0
0
0
0
0
0
0
0
0
1
1
0
0
0
0
0
0
0
0
0
0
0
0
0
0
0
0
0
0
0
0
1
1
0
0
0
0
0
0
0
0
0
0
0
0
0
0
0
0
0
0
0
0
0
0
0
0
0
0
0
0
0
0
0
0
0
1
1
0
0
0
0
0
0
0
0
0
0
0
0
0
0
0
0
0
0
0
0
1
1
0
0
0
0
0
0
0
0
0
0
0
0
0
0
0
0
0
0
0
0
0
0
0
0
0
0
0
0
0
0
0
0
0
1
1
0
0
0
0
0
0
0
0
0
0
0
0
0
0
0
0
0
0
0
0
1
1
0
0
0
0
0
0
0
0
0
0
0
0
0
0
0
0
0
0
0
0
0
0
0
0
0
0
0
0
0
0
0
0
0
1
1
0
0
0
0
0
0
0
0
0
0
0
0
0
0
0
0
0
0
0
0
1
1
0
0
0
0
0
0
0
0
0
0
0
0
0
0
0
0
0
0
0
0
0
0
0
0
0
0
0
0
0
0
0
0
0
1
1
0
0
0
0
0
0
0
0
0
0
0
0
0
0
0
0
0
0
0
0
1
1
0
0
0
0
0
0
0
0
0
0
0
0
0
0
0
0
0
0
0
0
0
0
0
0
0
0
0
0
0
0
0
0
0
1
1
0
0
0
0
0
0
0
0
0
0
0
0
0
0
0
0
0
0
0
0
1
1
0
0
0
0
0
0
0
0
0
0
0
0
0
0
0
0
0
0
0
0
0
0
0
0
0
0
0
0
0
0
0
0
0
1
1
0
0
0
0
0
0
0
0
0
0
0
0
0
0
0
0
0
0
0
0
1
1
0
0
0
0
0
0
0
0
0
0
0
0
0
0
0
0
0
0
0
0
0
0
0
0
0
0
0
0
0
0
0
0
0
1
1
0
0
0
0
0
0
0
0
0
0
0
0
0
0
0
0
0
0
0
0
1
1
0
0
0
0
0
0
0
0
0
0
0
0
0
0
0
0
0
0
0
0
0
0
0
0
0
0
0
0
0
0
0
0
0
1
1
0
0
0
0
0
0
0
0
0
0
0
0
0
0
0
0
0
0
0
0
1
1
0
0
0
0
0
0
0
0
0
0
0
0
0
0
0
0
0
0
0
0
0
0
0
0
0
0
0
0
0
0
0
0
0
1
1
0
0
0
0
0
0
0
0
0
0
0
0
0
0
0
0
0
0
0
0
1
1
0
0
0
0
0
0
0
0
0
0
0
0
0
0
0
0
0
0
0
0
0
0
0
0
0
0
0
0
0
0
0
0
0
1
1
0
0
0
0
0
0
0
0
0
0
0
0
0
0
0
0
0
0
0
0
1
1
0
0
0
0
0
0
0
0
0
0
0
0
0
0
0
0
0
0
0
0
0
0
0
0
0
0
0
0
0
0
0
0
0
1
1
0
0
0
0
0
0
0
0
0
0
0
0
0
0
0
0
0
0
0
0
1
1
0
0
0
0
0
0
0
0
0
0
0
0
0
0
0
0
0
0
0
0
0
0
0
0
0
0
0
0
0
0
0
0
0
1
1
0
0
0
0
0
0
0
0
0
0
0
0
0
0
0
0
0
0
0
0
0
1
1
0
0
0
0
0
0
0
0
0
0
0
0
0
0
0
0
0
0
0
0
0
0
0
0
0
0
0
0
0
0
0
0
0
0
1
1
0
0
0
0
0
0
0
0
0
0
0
0
0
0
0
0
0
0
0
0
0
0
0
0
0
0
0
0
0
0
0
0
0
0
0
0
0
0
0
0
0
0
0
0
0
0
0
0
0
0
0
0
0
0
0
0
0
1
1
0
0
0
0
0
0
0
0
0
0
0
0
0
0
0
0
0
0
0
0
0
0
0
0
0
0
0
0
0
0
0
0
0
0
0
0
0
0
0
0
0
0
0
0
0
0
0
0
0
0
0
0
0
0
0
0
0
1
1
0
0
0
0
0
0
0
0
0
0
0
0
0
0
0
0
0
0
0
0
0
0
0
0
0
0
0
0
0
0
0
0
0
0
0
0
0
0
0
0
0
0
0
0
0
0
0
0
0
0
0
0
0
0
0
0
0
1
1
0
0
0
0
0
0
0
0
0
0
0
0
0
0
0
0
0
0
0
0
0
0
0
0
0
0
0
0
0
0
0
0
0
0
0
0
0
0
0
0
0
0
0
0
0
0
0
0
0
0
0
0
0
0
0
0
0
1
1
0
0
0
0
0
0
0
0
0
0
0
0
0
0
0
0
0
0
0
0
0
0
0
0
0
0
0
0
0
0
0
0
0
0
0
0
0
0
0
0
0
0
0
0
0
0
0
0
0
0
0
0
0
0
0
0
0
1
1
0
0
0
0
0
0
0
0
0
0
0
0
0
0
0
0
0
0
0
0
0
0
0
0
0
0
0
0
0
0
0
0
0
0
0
0
0
0
0
0
0
0
0
0
0
0
0
0
0
0
0
0
0
0
0
0
0
1
1
0
0
0
0
0
0
0
0
0
0
0
0
0
0
0
0
0
0
0
0
0
0
0
0
0
0
0
0
0
0
0
0
0
0
0
0
0
0
0
0
0
0
0
0
0
0
0
0
0
0
0
0
0
0
0
0
0
1
1
0
0
0
0
0
0
0
0
0
0
0
0
0
0
0
0
0
0
0
0
0
0
0
0
0
0
0
0
0
0
0
0
0
0
0
0
0
0
0
0
0
0
0
0
0
0
0
0
0
0
0
0
0
0
0
0
0
1
1
0
0
0
0
0
0
0
0
0
0
0
0
0
0
0
0
0
0
0
0
0
0
0
0
0
0
0
0
0
0
0
0
0
0
0
0
0
0
0
0
0
0
0
0
0
0
0
0
0
0
0
0
0
0
0
0
0
1
1
0
0
0
0
0
0
0
0
0
0
0
0
0
0
0
0
0
0
0
0
0
0
0
0
0
0
0
0
0
0
0
0
0
0
0
0
0
0
0
0
0
0
0
0
0
0
0
0
0
0
0
0
0
0
0
0
0
1
1
0
0
0
0
0
0
0
0
0
0
0
0
0
0
0
0
0
0
0
0
0
1
1
0
0
0
0
0
0
0
0
0
0
0
0
0
0
0
0
0
0
0
0
0
0
0
0
0
0
0
0
0
0
0
0
0
0
1
1
0
0
0
0
0
0
0
0
0
0
0
0
0
0
0
0
0
0
0
0
1
1
0
0
0
0
0
0
0
0
0
0
0
0
0
0
0
0
0
0
0
0
0
0
0
0
0
0
0
0
0
0
0
0
0
1
1
0
0
0
0
0
0
0
0
0
0
0
0
0
0
0
0
0
0
0
0
1
1
0
0
0
0
0
0
0
0
0
0
0
0
0
0
0
0
0
0
0
0
0
0
0
0
0
0
0
0
0
0
0
0
0
1
1
0
0
0
0
0
0
0
0
0
0
0
0
0
0
0
0
0
0
0
0
1
1
0
0
0
0
0
0
0
0
0
0
0
0
0
0
0
0
0
0
0
0
0
0
0
0
0
0
0
0
0
0
0
0
0
1
1
0
0
0
0
0
0
0
0
0
0
0
0
0
0
0
0
0
0
0
0
1
1
0
0
0
0
0
0
0
0
0
0
0
0
0
0
0
0
0
0
0
0
0
0
0
0
0
0
0
0
0
0
0
0
0
1
1
0
0
0
0
0
0
0
0
0
0
0
0
0
0
0
0
0
0
0
0
1
1
0
0
0
0
0
0
0
0
0
0
0
0
0
0
0
0
0
0
0
0
0
0
0
0
0
0
0
0
0
0
0
0
0
1
1
0
0
0
0
0
0
0
0
0
0
0
0
0
0
0
0
0
0
0
0
1
1
0
0
0
0
0
0
0
0
0
0
0
0
0
0
0
0
0
0
0
0
0
0
0
0
0
0
0
0
0
0
0
0
0
1
1
0
0
0
0
0
0
0
0
0
0
0
0
0
0
0
0
0
0
0
0
1
1
0
0
0
0
0
0
0
0
0
0
0
0
0
0
0
0
0
0
0
0
0
0
0
0
0
0
0
0
0
0
0
0
0
1
1
0
0
0
0
0
0
0
0
0
0
0
0
0
0
0
0
0
0
0
0
1
1
0
0
0
0
0
0
0
0
0
0
0
0
0
0
0
0
0
0
0
0
0
0
0
0
0
0
0
0
0
0
0
0
0
1
1
0
0
0
0
0
0
0
0
0
0
0
0
0
0
0
0
0
0
0
0
1
1
0
0
0
0
0
0
0
0
0
0
0
0
0
0
0
0
0
0
0
0
0
0
0
0
0
0
0
0
0
0
0
0
0
1
1
0
0
0
0
0
0
0
0
0
0
0
0
0
0
0
0
0
0
0
0
1
1
0
0
0
0
0
0
0
0
0
0
0
0
0
0
0
0
0
0
0
0
0
0
0
0
0
0
0
0
0
0
0
0
0
1
1
0
0
0
0
0
0
0
0
0
0
0
0
0
0
0
0
0
0
0
0
1
1
0
0
0
0
0
0
0
0
0
0
0
0
0
0
0
0
0
0
0
0
0
0
0
0
0
0
0
0
0
0
0
0
0
1
1
0
0
0
0
0
0
0
0
0
0
0
0
0
0
0
0
0
0
0
0
1
1
0
0
0
0
0
0
0
0
0
0
0
0
0
0
0
0
0
0
0
0
0
0
0
0
0
0
0
0
0
0
0
0
0
1
1
0
0
0
0
0
0
0
0
0
0
0
0
0
0
0
0
0
0
0
0
1
1
0
0
0
0
0
0
0
0
0
0
0
0
0
0
0
0
0
0
0
0
0
0
0
0
0
0
0
0
0
0
0
0
0
1
1
0
0
0
0
0
0
0
0
0
0
0
0
0
0
0
0
0
0
0
0
1
1
0
0
0
0
0
0
0
0
0
0
0
0
0
0
0
0
0
0
0
0
0
0
0
0
0
0
0
0
0
0
0
0
0
1
1
0
0
0
0
0
0
0
0
0
0
0
0
0
0
0
0
0
0
0
0
1
1
0
0
0
0
0
0
0
0
0
0
0
0
0
0
0
0
0
0
0
0
0
0
0
0
0
0
0
0
0
0
0
0
0
1
1
0
0
0
0
0
0
0
0
0
0
0
0
0
0
0
0
0
0
0
0
1
1
0
0
0
0
0
0
0
0
0
0
0
0
0
0
0
0
0
0
0
0
0
0
0
0
0
0
0
0
0
0
0
0
0
1
1
0
0
0
0
0
0
0
0
0
0
0
0
0
0
0
0
0
0
0
0
1
1
0
0
0
0
0
0
0
0
0
0
0
0
0
0
0
0
0
0
0
0
0
0
0
0
0
0
0
0
0
0
0
0
0
1
1
0
0
0
0
0
0
0
0
0
0
0
0
0
0
0
0
0
0
0
0
1
1
0
0
0
0
0
0
0
0
0
0
0
0
0
0
0
0
0
0
0
0
0
0
0
0
0
0
0
0
0
0
0
0
0
1
1
0
0
0
0
0
0
0
0
0
0
0
0
0
0
0
0
0
0
0
0
1
1
0
0
0
0
0
0
0
0
0
0
0
0
0
0
0
0
0
0
0
0
0
0
0
0
0
0
0
0
0
0
0
0
0
1
1
0
0
0
0
0
0
0
0
0
0
0
0
0
0
0
0
0
0
0
0
1
1
0
0
0
0
0
0
0
0
0
0
0
0
0
0
0
0
0
0
0
0
0
0
0
0
0
0
0
0
0
0
0
0
0
1
1
0
0
0
0
0
0
0
0
0
0
0
0
0
0
0
0
0
0
0
0
1
1
0
0
0
0
0
0
0
0
0
0
0
0
0
0
0
0
0
0
0
0
0
0
0
0
0
0
0
0
0
0
0
0
0
1
1
1
1
1
1
1
1
1
1
1
1
1
1
1
1
1
1
1
1
1
1
1
1
1
1
1
1
1
1
1
1
1
1
1
1
1
1
1
1
1
1
1
1
1
1
1
1
1
1
1
1
1
1
1
1
1
1
				</DataArray>
				<DataArray type="Float64" Name="h" NumberOfComponents="1" Format="ascii">
1.3053465518
1.3057502259
1.3057501111
1.3057601751
1.3057994210
1.3058933895
1.3060704369
1.3063568374
1.3067721961
1.3073248823
1.3080088040
1.3088029451
1.3096729672
1.3105753545
1.3114631650
1.3122915219
1.3130226491
1.3136285860
1.3140914515
1.3144023806
1.3145581975
1.3145581975
1.1463493491
1.1459305268
1.1460469382
1.1462636304
1.1465538816
1.1468864842
1.1472312146
1.1475625543
1.1478598445
1.1481067963
1.1482912246
1.1484033590
1.1484349974
1.1483794189
1.1482301032
1.1479801878
1.1476223685
1.1471476272
1.1465445624
1.1457989528
1.1448924030
1.1438017738
1.1424990683
1.1409514825
1.1391237376
1.1369828362
1.1345067544
1.1316996510
1.1286119460
1.1253639888
1.1221648741
1.1193081419
1.1171341166
1.1159538125
1.1159538125
1.3057502259
1.3061806734
1.3061544752
1.3061099504
1.3060614899
1.3060283146
1.3060315324
1.3060902946
1.3062185061
1.3064217057
1.3066951587
1.3070243542
1.3073870022
1.3077567613
1.3081078243
1.3084187501
1.3086755356
1.3088724485
1.3090108026
1.3090967999
1.3091375482
1.3145581975
1.1459305268
1.1454837936
1.1456060294
1.1458341548
1.1461410295
1.1464948875
1.1468648904
1.1472249397
1.1475539096
1.1478351979
1.1480564837
1.1482080520
1.1482819606
1.1482719980
1.1481724835
1.1479778633
1.1476828623
1.1472815959
1.1467674726
1.1461335943
1.1453725069
1.1444769696
1.1434413012
1.1422626072
1.1409432676
1.1394937616
1.1379356789
1.1363056416
1.1346576905
1.1330645182
1.1316159474
1.1304100022
1.1295413092
1.1290863017
1.1159538125
1.3060001704
1.3063667308
1.3063492159
1.3063207498
1.3062932175
1.3062823509
1.3063051476
1.3063765372
1.3065066766
1.3066984222
1.3069458864
1.3072351388
1.3075461123
1.3078559576
1.3081430738
1.3083903780
1.3085879029
1.3087333449
1.3088307420
1.3088883086
1.3089144980
1.3142728388
1.1455892468
1.1451599510
1.1452880268
1.1455266225
1.1458467111
1.1462145901
1.1465978175
1.1469691366
1.1473066508
1.1475932524
1.1478162653
1.1479656690
1.1480331911
1.1480122118
1.1478965199
1.1476798910
1.1473562508
1.1469188429
1.1463602726
1.1456731494
1.1448502331
1.1438857919
1.1427777171
1.1415296782
1.1401545269
1.1386775886
1.1371390871
1.1355954069
1.1341158126
1.1327751770
1.1316432232
1.1307709563
1.1301853301
1.1298938266
1.1173117462
1.3065112433
1.3067542479
1.3067527386
1.3067538402
1.3067647546
1.3067946881
1.3068529375
1.3069464974
1.3070784396
1.3072464892
1.3074424684
1.3076534084
1.3078633351
1.3080559636
1.3082177177
1.3083399448
1.3084205990
1.3084642148
1.3084803559
1.3084813893
1.3084785859
1.3137144051
1.1448800494
1.1444875980
1.1446274940
1.1448872372
1.1452339341
1.1456299365
1.1460395496
1.1464331715
1.1467873419
1.1470839240
1.1473095185
1.1474534902
1.1475069156
1.1474623871
1.1473126905
1.1470503612
1.1466678875
1.1461570167
1.1455091109
1.1447163091
1.1437724945
1.1426758435
1.1414324277
1.1400600696
1.1385932110
1.1370864782
1.1356149791
1.1342692716
1.1331405845
1.1322984706
1.1317665221
1.1315060412
1.1314263554
1.1314223433
1.1198599684
1.3073036228
1.3073712868
1.3073906650
1.3074302672
1.3074910195
1.3075733723
1.3076762615
1.3077959546
1.3079258570
1.3080565649
1.3081765314
1.3082738007
1.3083377325
1.3083609118
1.3083408716
1.3082809016
1.3081904482
1.3080842239
1.3079802415
1.3078973874
1.3078514568
1.3129085917
1.1437489798
1.1434163812
1.1435743578
1.1438663392
1.1442534068
1.1446918261
1.1451409221
1.1455675128
1.1459457448
1.1462558981
1.1464834619
1.1466168740
1.1466462662
1.1465631333
1.1463589167
1.1460245627
1.1455508309
1.1449278692
1.1441461089
1.1431982815
1.1420816737
1.1408024468
1.1393812967
1.1378593796
1.1363043926
1.1348129359
1.1335055232
1.1325104244
1.1319323643
1.1318131606
1.1320982900
1.1326284823
1.1331764493
1.1335197424
1.1233070214
1.3084020622
1.3082531847
1.3082952705
1.3083765564
1.3084908163
1.3086285073
1.3087767043
1.3089193213
1.3090385027
1.3091163467
1.3091370075
1.3090892422
1.3089682246
1.3087767310
1.3085255012
1.3082324805
1.3079216869
1.3076211883
1.3073604815
1.3071676192
1.3070649400
1.3118929680
1.1421154115
1.1418701819
1.1420529424
1.1423889148
1.1428307386
1.1433262778
1.1438280594
1.1442980369
1.1447070971
1.1450333507
1.1452607704
1.1453765701
1.1453697063
1.1452304010
1.1449486465
1.1445138288
1.1439152624
1.1431422271
1.1421856999
1.1410416133
1.1397148652
1.1382258592
1.1366184294
1.1349674560
1.1333846425
1.1320165127
1.1310294216
1.1305773575
1.1307523690
1.1315336706
1.1327585986
1.1341375771
1.1353229941
1.1360063347
1.1273111577
1.3098306902
1.3094361785
1.3094996410
1.3096198623
1.3097833032
1.3099701912
1.3101554240
1.3103101558
1.3104047499
1.3104121813
1.3103116463
1.3100920538
1.3097541405
1.3093111549
1.3087880211
1.3082190738
1.3076453046
1.3071110050
1.3066602188
1.3063330773
1.3061608298
1.3107163903
1.1398739097
1.1397478687
1.1399627442
1.1403554086
1.1408673207
1.1414354444
1.1420036239
1.1425276435
1.1429742465
1.1433187740
1.1435432843
1.1436335231
1.1435771675
1.1433632243
1.1429805100
1.1424174539
1.1416630387
1.1407075595
1.1395455357
1.1381805980
1.1366316057
1.1349415274
1.1331871690
1.1314869840
1.1300035001
1.1289323011
1.1284719650
1.1287733004
1.1298759183
1.1316594506
1.1338372972
1.1360067655
1.1377449344
1.1387090671
1.1315487888
1.3116086528
1.3109518233
1.3110325646
1.3111837520
1.3113849781
1.3116068617
1.3118128429
1.3119620107
1.3120134469
1.3119311568
1.3116891074
1.3112757095
1.3106964460
1.3099743840
1.3091484928
1.3082701512
1.3073988767
1.3065975498
1.3059276930
1.3054446021
1.3051911341
1.3094387853
1.1368985253
1.1369260879
1.1371812308
1.1376445366
1.1382431893
1.1389006173
1.1395501107
1.1401400304
1.1406321288
1.1409984026
1.1412186470
1.1412770067
1.1411599875
1.1408557916
1.1403528699
1.1396400686
1.1387082030
1.1375518271
1.1361736525
1.1345913311
1.1328457335
1.1310117060
1.1292081975
1.1276035018
1.1264100217
1.1258592177
1.1261532549
1.1273982789
1.1295388758
1.1323299735
1.1353688219
1.1381810634
1.1403274433
1.1414846802
1.1357605453
1.3137462269
1.3128221050
1.3129139555
1.3130842177
1.3133064949
1.3135430440
1.3137473429
1.3138679698
1.3138540764
1.3136615743
1.3132593983
1.3126349189
1.3117972383
1.3107778894
1.3096287716
1.3084178877
1.3072238586
1.3061298089
1.3052173214
1.3045599611
1.3042151587
1.3081277434
1.1330532583
1.1332676922
1.1335723237
1.1341218560
1.1348257444
1.1355912191
1.1363393000
1.1370098371
1.1375588604
1.1379545313
1.1381741378
1.1382002688
1.1380186633
1.1376175862
1.1369865876
1.1361171800
1.1350052775
1.1336542219
1.1320808975
1.1303244025
1.1284560503
1.1265907777
1.1248952965
1.1235870609
1.1229167868
1.1231258108
1.1243803580
1.1266977888
1.1298957739
1.1336019090
1.1373292830
1.1405866665
1.1429749288
1.1442317891
1.1397718237
1.3162424165
1.3150563678
1.3151519157
1.3153270032
1.3155503733
1.3157775371
1.3159539856
1.3160199068
1.3159164851
1.3155930081
1.3150140598
1.3141657007
1.3130594913
1.3117336828
1.3102512570
1.3086954513
1.3071635322
1.3057596177
1.3045873320
1.3037414249
1.3032970518
1.3068556483
1.1282094519
1.1286367455
1.1290014687
1.1296549310
1.1304850813
1.1313804536
1.1322484455
1.1330196288
1.1336437879
1.1340848948
1.1343176263
1.1343232675
1.1340875145
1.1336000262
1.1328535346
1.1318452181
1.1305801717
1.1290757911
1.1273695143
1.1255289706
1.1236627028
1.1219303145
1.1205456704
1.1197657888
1.1198576731
1.1210376777
1.1233943971
1.1268216306
1.1309991594
1.1354492183
1.1396485764
1.1431432033
1.1456160753
1.1468894284
1.1434881816
1.3190849452
1.3176509255
1.3177423262
1.3179071672
1.3181105497
1.3183029976
1.3184241942
1.3184083331
1.3181909452
1.3177165765
1.3169465745
1.3158657906
1.3144872834
1.3128541930
1.3110383017
1.3091359128
1.3072614649
1.3055397600
1.3040975910
1.3030533962
1.3025033129
1.3056968675
1.1222692575
1.1229198771
1.1233570467
1.1241347950
1.1251155593
1.1261671332
1.1271825738
1.1280828871
1.1288113544
1.1293275341
1.1296034802
1.1296195520
1.1293623223
1.1288244455
1.1280042309
1.1269077988
1.1255536102
1.1239780881
1.1222446028
1.1204543010
1.1187561246
1.1173534789
1.1164995842
1.1164733892
1.1175295195
1.1198230026
1.1233308520
1.1278067245
1.1328050337
1.1377826472
1.1422311054
1.1457756619
1.1482041363
1.1494296951
1.1468787635
1.3222505396
1.3205893188
1.3206689675
1.3208089543
1.3209719290
1.3211051564
1.3211446772
1.3210211158
1.3206667721
1.3200235483
1.3190509934
1.3177332411
1.3160842432
1.3141503812
1.3120098226
1.3097692318
1.3075578278
1.3055196471
1.3038047144
1.3025570570
1.3018971529
1.3047219513
1.1151942239
1.1160539927
1.1165782471
1.1175040001
1.1186640618
1.1199042452
1.1211034466
1.1221733832
1.1230507867
1.1236905660
1.1240620358
1.1241448830
1.1239273439
1.1234065047
1.1225883751
1.1214907941
1.1201488846
1.1186215833
1.1170012487
1.1154241714
1.1140783829
1.1132048116
1.1130825795
1.1139905124
1.1161415087
1.1195990323
1.1242092180
1.1295896245
1.1352003270
1.1404798309
1.1449777505
1.1484234647
1.1507145567
1.1518490116
1.1499568176
1.3257059446
1.3238435347
1.3239045603
1.3240065020
1.3241106489
1.3241625943
1.3240967389
1.3238424132
1.3233310208
1.3225039490
1.3213205713
1.3197651321
1.3178522883
1.3156303718
1.3131816376
1.3106201179
1.3080866527
1.3057419091
1.3037579912
1.3023056849
1.3015334033
1.3039926078
1.1070300857
1.1080530430
1.1086820214
1.1097836625
1.1111570552
1.1126259831
1.1140564450
1.1153516302
1.1164416321
1.1172761232
1.1178210746
1.1180552032
1.1179685771
1.1175634079
1.1168545696
1.1158731098
1.1146723834
1.1133350622
1.1119827019
1.1107849944
1.1099640862
1.1097886837
1.1105479705
1.1124987431
1.1157874995
1.1203668213
1.1259491705
1.1320371012
1.1380368979
1.1434123926
1.1478006636
1.1510432317
1.1531393322
1.1541584442
1.1527604821
1.3294102660
1.3273766245
1.3274132042
1.3274659397
1.3274957165
1.3274478463
1.3272568444
1.3268527591
1.3261682059
1.3251460622
1.3237471924
1.3219570142
1.3197910930
1.3172988538
1.3145646299
1.3117067559
1.3088739395
1.3062397624
1.3039959444
1.3023404191
1.3014537024
1.3035570963
1.0979138405
1.0990210294
1.0997762720
1.1010865412
1.1027133127
1.1044599122
1.1061818341
1.1077746613
1.1091612138
1.1102844453
1.1111053704
1.1116004041
1.1117605403
1.1115926226
1.1111201709
1.1103872876
1.1094652153
1.1084594479
1.1075187252
1.1068423084
1.1066798468
1.1073173513
1.1090391034
1.1120615251
1.1164475966
1.1220316718
1.1284037685
1.1349828145
1.1411624523
1.1464656340
1.1506313539
1.1536083098
1.1554817453
1.1563765020
1.1553386278
1.3333161131
1.3311441818
1.3311516997
1.3311464118
1.3310896131
1.3309275052
1.3305961889
1.3300281172
1.3291589121
1.3279347100
1.3263194416
1.3243008671
1.3218959644
1.3191548106
1.3161621759
1.3130377209
1.3099338447
1.3070322959
1.3045405807
1.3026834079
1.3016787757
1.3034427674
1.0880542835
1.0891414018
1.0900497845
1.0916071296
1.0935338627
1.0956165003
1.0977033813
1.0996829401
1.1014687933
1.1029941326
1.1042118946
1.1050935174
1.1056288052
1.1058275746
1.1057205665
1.1053635210
1.1048439549
1.1042881353
1.1038691570
1.1038117183
1.1043867674
1.1058885065
1.1085841004
1.1126361709
1.1180149258
1.1244394117
1.1313978124
1.1382601320
1.1444427986
1.1495494623
1.1534229634
1.1561061448
1.1577517199
1.1585239453
1.1577412185
1.3373704325
1.3350954412
1.3350705378
1.3350008542
1.3348487673
1.3345623223
1.3340803839
1.3333391520
1.3322786903
1.3308498481
1.3290209964
1.3267833772
1.3241560514
1.3211896335
1.3179680533
1.3146095035
1.3112656225
1.3081206267
1.3053925338
1.3033316956
1.3022011518
1.3036490864
1.0776820304
1.0786358897
1.0797320520
1.0815818630
1.0838623124
1.0863494638
1.0888884101
1.0913595043
1.0936630009
1.0957170566
1.0974616028
1.0988591460
1.0998953563
1.1005808255
1.1009517155
1.1010737255
1.1010489305
1.1010224884
1.1011895786
1.1017972223
1.1031329786
1.1054922440
1.1091159234
1.1141041054
1.1203316516
1.1274126169
1.1347585284
1.1417231434
1.1477722619
1.1526004256
1.1561475534
1.1585339224
1.1599614753
1.1606197970
1.1600128611
1.3415159612
1.3391748365
1.3391153856
1.3389773350
1.3387246826
1.3383080612
1.3376699943
1.3367514239
1.3354979126
1.3338661119
1.3318299149
1.3293850242
1.3265532687
1.3233858792
1.3199649671
1.3164046885
1.3128513138
1.3094849306
1.3065271504
1.3042518551
1.3029781258
1.3041407775
1.0669779104
1.0676973376
1.0690280398
1.0712248453
1.0739215407
1.0768938379
1.0799874051
1.0830709097
1.0860237510
1.0887409726
1.0911427745
1.0931780122
1.0948253227
1.0960944236
1.0970259086
1.0976946946
1.0982167169
1.0987552781
1.0995266580
1.1007985096
1.1028718749
1.1060381852
1.1105054841
1.1163064328
1.1232230430
1.1307791794
1.1383355223
1.1452570042
1.1510760171
1.1555792649
1.1587920647
1.1608949374
1.1621229503
1.1626795153
1.1621900364
1.3456911657
1.3433219011
1.3432269388
1.3430188133
1.3426635527
1.3421149220
1.3413197245
1.3402243017
1.3387803861
1.3369511211
1.3347166347
1.3320777852
1.3290597108
1.3257143725
1.3221212822
1.3183882211
1.3146514306
1.3110793987
1.3078883516
1.3053718655
1.3039208956
1.3048368908
1.0560026433
1.0564169629
1.0580498024
1.0606624610
1.0638518897
1.0674087104
1.0711815883
1.0750193215
1.0787683112
1.0822892335
1.0854744987
1.0882548315
1.0906002356
1.0925197281
1.0940593168
1.0953042880
1.0963854396
1.0974849728
1.0988405878
1.1007399938
1.1034956101
1.1073909467
1.1125964733
1.1190755233
1.1265233107
1.1343903236
1.1420101149
1.1487796085
1.1543067397
1.1584656094
1.1613533469
1.1631950130
1.1642456338
1.1647136546
1.1642997475
1.3498298509
1.3474706357
1.3473402682
1.3470624378
1.3466054878
1.3459266659
1.3449774123
1.3437097927
1.3420819916
1.3400639039
1.3376421680
1.3348230950
1.3316353750
1.3281316820
1.3243882204
1.3205042714
1.3166014302
1.3128282217
1.3093836765
1.3065736533
1.3048825203
1.3055984839
1.0446488625
1.0447286583
1.0467691142
1.0498914737
1.0536759525
1.0579497896
1.0625627425
1.0673280156
1.0720408549
1.0765134320
1.0806023006
1.0842174939
1.0873216401
1.0899262733
1.0920866114
1.0939018320
1.0955204361
1.0971456088
1.0990376746
1.1015043549
1.1048677499
1.1094001707
1.1152312344
1.1222553680
1.1300892967
1.1381270550
1.1456951241
1.1522366290
1.1574375484
1.1612511473
1.1638328991
1.1654391353
1.1663347332
1.1667268624
1.1663590004
1.3538613429
1.3515492784
1.3513845668
1.3510392509
1.3504841510
1.3496801605
1.3485834573
1.3471518321
1.3453498108
1.3431538456
1.3405568680
1.3375704395
1.3342266043
1.3305784379
1.3266980657
1.3226743190
1.3186096656
1.3146233782
1.3108814058
1.3076869547
1.3056435553
1.3062136666
1.0326217762
1.0323806618
1.0350051180
1.0387766656
1.0433083532
1.0484910925
1.0541630542
1.0600745008
1.0659450631
1.0715236673
1.0766260353
1.0811435816
1.0850375166
1.0883291227
1.0910897568
1.0934382708
1.0955451717
1.0976375199
1.0999997543
1.1029595233
1.1068468658
1.1119199905
1.1182655325
1.1257111799
1.1338046135
1.1418990892
1.1493297514
1.1555943162
1.1604547691
1.1639337952
1.1662330169
1.1676294624
1.1683905441
1.1687179540
1.1683756146
1.3577096900
1.3554789924
1.3552817997
1.3548727621
1.3542252210
1.3533036990
1.3520689680
1.3504842340
1.3485198691
1.3461582281
1.3433977884
1.3402545865
1.3367632567
1.3329765042
1.3289613618
1.3247943185
1.3205543954
1.3163213534
1.3122063600
1.3084800035
1.3058863337
1.3063710391
1.0194269856
1.0189171444
1.0224401479
1.0270902949
1.0326214585
1.0390100511
1.0460470651
1.0533780978
1.0606208856
1.0674527555
1.0736528334
1.0791045870
1.0837803330
1.0877227255
1.0910288661
1.0938445096
1.0963670466
1.0988502877
1.1016038796
1.1049747662
1.1092988212
1.1148174349
1.1215730380
1.1293299233
1.1375763559
1.1456383771
1.1528712002
1.1588308318
1.1633503602
1.1665119475
1.1685529568
1.1697630825
1.1704073052
1.1706793151
1.1703484055
1.3612929735
1.3591726466
1.3589454090
1.3584775017
1.3577447179
1.3567150233
1.3553534155
1.3536279216
1.3515139149
1.3489985730
1.3460846735
1.3427913832
1.3391545577
1.3352251905
1.3310637741
1.3267323736
1.3222822187
1.3177421428
1.3131387738
1.3086516144
1.3051532781
1.3056171678
1.0042907378
1.0035965346
1.0086246384
1.0145846630
1.0215765874
1.0296454122
1.0384645572
1.0475291483
1.0563445481
1.0645295996
1.0718496012
1.0782035133
1.0835945984
1.0881018463
1.0918586492
1.0950445557
1.0978877649
1.1006705224
1.1037275527
1.1074234020
1.1120970338
1.1179703213
1.1250409099
1.1330136701
1.1413265284
1.1492893317
1.1562848272
1.1619274708
1.1661149539
1.1689795319
1.1707857783
1.1718302142
1.1723722808
1.1725964159
1.1722673947
1.3645238993
1.3625350766
1.3622804279
1.3617588316
1.3609483352
1.3598199774
1.3583423765
1.3564875104
1.3542345910
1.3515741827
1.3485117402
1.3450678296
1.3412777956
1.3371892964
1.3328546618
1.3283193810
1.3236024006
1.3186685976
1.3134192039
1.3078320639
1.3027755198
1.3032846471
0.9857350229
0.9849684733
0.9928710257
1.0011193628
1.0104755090
1.0209616122
1.0320666537
1.0431406311
1.0536233690
1.0631324217
1.0714691297
1.0785848232
1.0845379959
1.0894583729
1.0935233968
1.0969498970
1.0999975723
1.1029760234
1.1062427033
1.1101764531
1.1151156742
1.1212598839
1.1285617608
1.1366709132
1.1449829756
1.1527999833
1.1595363112
1.1648624859
1.1687335833
1.1713234987
1.1729172283
1.1738140656
1.1742662196
1.1744485503
1.1741151226
1.3673125269
1.3654658178
1.3651860681
1.3646152047
1.3637331155
1.3625132234
1.3609267487
1.3589482485
1.3565590283
1.3537509611
1.3505299172
1.3469156167
1.3429410130
1.3386494523
1.3340854639
1.3292796510
1.3242198247
1.3187987708
1.3127422706
1.3056235900
1.2977760230
1.2983958635
0.9595884319
0.9588916686
0.9739520093
0.9871195883
1.0005579593
1.0144179809
1.0281958530
1.0412926799
1.0532448392
1.0637839453
1.0728195120
1.0803949322
1.0866419739
1.0917461766
1.0959274898
1.0994355742
1.1025561270
1.1056204548
1.1090031827
1.1130920911
1.1182203465
1.1245621307
1.1320253044
1.1402083533
1.1484714636
1.1561147848
1.1625856751
1.1676066226
1.1711827154
1.1735220892
1.1749248935
1.1756905484
1.1760633815
1.1762089994
1.1758672438
1.3695734807
1.3678668292
1.3675636346
1.3669464261
1.3659961228
1.3646872177
1.3629916017
1.3608837460
1.3583434690
1.3553592635
1.3519314849
1.3480717364
1.3438022533
1.3391540225
1.3341592716
1.3288402093
1.3231854331
1.3170932109
1.3102363687
1.3017422895
1.2897966409
1.2905940187
0.9097947909
0.9093616297
0.9503716890
0.9754381494
0.9954464199
1.0131598479
1.0291949055
1.0435593987
1.0561668622
1.0669938405
1.0761062940
1.0836454958
1.0898027551
1.0947989183
1.0988759206
1.1022985223
1.1053640852
1.1084143406
1.1118321516
1.1160071467
1.1212620683
1.1277431438
1.1353142522
1.1435270683
1.1517121639
1.1591716882
1.1653852494
1.1701220851
1.1734301098
1.1755453438
1.1767790955
1.1774293562
1.1777326797
1.1778461862
1.1774939739
1.3712375300
1.3696552521
1.3693303047
1.3686695882
1.3676539068
1.3662569388
1.3644483812
1.3621983818
1.3594789277
1.3562653759
1.3525370718
1.3482718099
1.3434368415
1.3379720891
1.3317533125
1.3245242666
1.3157601068
1.3043702865
1.2880214672
1.2614245322
1.2115186550
1.1020220665
0.9450535562
0.9822441712
0.9829039946
0.9817180621
0.9924755953
1.0027326389
1.0145089370
1.0272310236
1.0400101882
1.0521320804
1.0631363601
1.0727908106
1.0810328243
1.0879196250
1.0935847312
1.0982082619
1.1020048104
1.1052222537
1.1081488248
1.1111229479
1.1145264049
1.1187443385
1.1240853093
1.1306667609
1.1383110836
1.1465282498
1.1546245442
1.1619065263
1.1678838472
1.1723666535
1.1754388716
1.1773590061
1.1784465681
1.1789973912
1.1792408963
1.1793267726
1.1789633617
1.3722610662
1.3707745511
1.3704314571
1.3697340997
1.3686624927
1.3671885320
1.3652785358
1.3628970844
1.3600073319
1.3565713559
1.3525495110
1.3478926614
1.3425305867
1.3363527658
1.3291691875
1.3206452676
1.3101852528
1.2967029198
1.2781633196
1.2505786070
1.2056465768
1.1259611757
0.9426018915
0.9802190501
0.9827131700
0.9873793643
0.9984771317
1.0101090158
1.0224033220
1.0349273604
1.0471138510
1.0584826733
1.0687164675
1.0776652194
1.0852997889
1.0916836167
1.0969426220
1.1012440016
1.1047899680
1.1078193075
1.1106150171
1.1135138683
1.1168970268
1.1211453598
1.1265542042
1.1332150152
1.1409138283
1.1491253546
1.1571368059
1.1642605150
1.1700329118
1.1742988406
1.1771718116
1.1789281923
1.1798935243
1.1803613364
1.1805549001
1.1806176911
1.1802434320
1.3726220546
1.3711924050
1.3708372059
1.3701151668
1.3690053113
1.3674776086
1.3654951101
1.3630175012
1.3600008287
1.3563974169
1.3521551102
1.3472091410
1.3414708317
1.3348103203
1.3270213800
1.3177670359
1.3064890518
1.2922378057
1.2733613966
1.2468945787
1.2073056869
1.1457051422
1.0249282896
1.0186510424
1.0081361962
1.0058386559
1.0113888780
1.0202975868
1.0309966437
1.0423595946
1.0535698964
1.0640762488
1.0735509648
1.0818405639
1.0889214106
1.0948547354
1.0997544527
1.1037736278
1.1071018719
1.1099687545
1.1126518112
1.1154857198
1.1188505872
1.1231231520
1.1285870804
1.1353116464
1.1430526173
1.1512561792
1.1591950579
1.1661875402
1.1717925469
1.1758830208
1.1785958557
1.1802211829
1.1810889139
1.1814904785
1.1816441600
1.1816884966
1.1813045966
1.3723109366
1.3708933273
1.3705335426
1.3698018296
1.3686762000
1.3671248257
1.3651079547
1.3625813956
1.3594960075
1.3557975955
1.3514265191
1.3463098702
1.3403511920
1.3334156899
1.3252991939
1.3156827467
1.3040612150
1.2896122941
1.2709747823
1.2458537364
1.2102997546
1.1590224893
1.0726090393
1.0468142576
1.0287173408
1.0213727021
1.0227986728
1.0292152541
1.0383236424
1.0485469816
1.0588515509
1.0685968170
1.0774230276
1.0851648958
1.0917863993
1.0973469886
1.1019513210
1.1057398374
1.1088910313
1.1116262370
1.1142179687
1.1169987477
1.1203474705
1.1246373114
1.1301425019
1.1369148263
1.1446866257
1.1528824761
1.1607646416
1.1676565779
1.1731346065
1.1770928671
1.1796855846
1.1812128977
1.1820077420
1.1823598445
1.1824837283
1.1825142642
1.1821225769
1.3713289565
1.3698778716
1.3695211581
1.3687950628
1.3676765648
1.3661321457
1.3641196208
1.3615916783
1.3584953365
1.3547719899
1.3503574691
1.3451746501
1.3391240975
1.3320711633
1.3238178472
1.3140632216
1.3023438380
1.2879257687
1.2696332716
1.2455708905
1.2126787925
1.1673599273
1.0993230589
1.0653078059
1.0428622765
1.0321822861
1.0308758762
1.0355002775
1.0434318124
1.0528226426
1.0624837201
1.0717006571
1.0800824609
1.0874505415
1.0937608834
1.0990656218
1.1034665966
1.1070956811
1.1101238103
1.1127667089
1.1152935130
1.1180353643
1.1213704329
1.1256695181
1.1312004051
1.1380029302
1.1457935461
1.1539823555
1.1618248386
1.1686481966
1.1740405493
1.1779101677
1.1804226843
1.1818847247
1.1826310970
1.1829503176
1.1830543848
1.1830757374
1.1826785813
1.3696927004
1.3681671511
1.3678203892
1.3671136459
1.3660228265
1.3645127738
1.3625391126
1.3600518998
1.3569951673
1.3533071658
1.3489207899
1.3437565395
1.3377137498
1.3306587301
1.3223981131
1.3126421255
1.3009505705
1.2866355152
1.2686128293
1.2451764948
1.2136765643
1.1712182810
1.1114055130
1.0745233377
1.0501494418
1.0378292505
1.0351522598
1.0388322095
1.0461286531
1.0550709506
1.0643909332
1.0733328463
1.0814863167
1.0886637249
1.0948161780
1.0999902035
1.1042864101
1.1078322892
1.1107948648
1.1133870407
1.1158763635
1.1185934756