<VTKFile type="UnstructuredGrid" version="0.1">
	<UnstructuredGrid>
		<Piece NumberOfPoints="13548" NumberOfCells="3387">
			<CellData>
				<DataArray type="Int32" Name="ghost" NumberOfComponents="1" Format="ascii">
1
1
1
1
1
1
1
1
1
1
1
1
1
1
1
1
1
1
1
1
1
1
1
1
1
1
1
1
1
1
1
1
1
1
1
1
1
1
1
1
1
1
1
1
1
1
1
1
1
1
1
1
1
1
1
1
1
1
0
0
0
0
0
0
0
0
0
0
0
0
0
0
0
0
0
0
0
0
1
1
0
0
0
0
0
0
0
0
0
0
0
0
0
0
0
0
0
0
0
0
0
0
0
0
0
0
0
0
0
0
0
0
0
1
1
0
0
0
0
0
0
0
0
0
0
0
0
0
0
0
0
0
0
0
0
1
1
0
0
0
0
0
0
0
0
0
0
0
0
0
0
0
0
0
0
0
0
0
0
0
0
0
0
0
0
0
0
0
0
0
1
1
0
0
0
0
0
0
0
0
0
0
0
0
0
0
0
0
0
0
0
0
1
1
0
0
0
0
0
0
0
0
0
0
0
0
0
0
0
0
0
0
0
0
0
0
0
0
0
0
0
0
0
0
0
0
0
1
1
0
0
0
0
0
0
0
0
0
0
0
0
0
0
0
0
0
0
0
0
1
1
0
0
0
0
0
0
0
0
0
0
0
0
0
0
0
0
0
0
0
0
0
0
0
0
0
0
0
0
0
0
0
0
0
1
1
0
0
0
0
0
0
0
0
0
0
0
0
0
0
0
0
0
0
0
0
1
1
0
0
0
0
0
0
0
0
0
0
0
0
0
0
0
0
0
0
0
0
0
0
0
0
0
0
0
0
0
0
0
0
0
1
1
0
0
0
0
0
0
0
0
0
0
0
0
0
0
0
0
0
0
0
0
1
1
0
0
0
0
0
0
0
0
0
0
0
0
0
0
0
0
0
0
0
0
0
0
0
0
0
0
0
0
0
0
0
0
0
1
1
0
0
0
0
0
0
0
0
0
0
0
0
0
0
0
0
0
0
0
0
1
1
0
0
0
0
0
0
0
0
0
0
0
0
0
0
0
0
0
0
0
0
0
0
0
0
0
0
0
0
0
0
0
0
0
1
1
0
0
0
0
0
0
0
0
0
0
0
0
0
0
0
0
0
0
0
0
1
1
0
0
0
0
0
0
0
0
0
0
0
0
0
0
0
0
0
0
0
0
0
0
0
0
0
0
0
0
0
0
0
0
0
1
1
0
0
0
0
0
0
0
0
0
0
0
0
0
0
0
0
0
0
0
0
1
1
0
0
0
0
0
0
0
0
0
0
0
0
0
0
0
0
0
0
0
0
0
0
0
0
0
0
0
0
0
0
0
0
0
1
1
0
0
0
0
0
0
0
0
0
0
0
0
0
0
0
0
0
0
0
0
1
1
0
0
0
0
0
0
0
0
0
0
0
0
0
0
0
0
0
0
0
0
0
0
0
0
0
0
0
0
0
0
0
0
0
1
1
0
0
0
0
0
0
0
0
0
0
0
0
0
0
0
0
0
0
0
0
1
1
0
0
0
0
0
0
0
0
0
0
0
0
0
0
0
0
0
0
0
0
0
0
0
0
0
0
0
0
0
0
0
0
0
1
1
0
0
0
0
0
0
0
0
0
0
0
0
0
0
0
0
0
0
0
0
1
1
0
0
0
0
0
0
0
0
0
0
0
0
0
0
0
0
0
0
0
0
0
0
0
0
0
0
0
0
0
0
0
0
0
1
1
0
0
0
0
0
0
0
0
0
0
0
0
0
0
0
0
0
0
0
0
1
1
0
0
0
0
0
0
0
0
0
0
0
0
0
0
0
0
0
0
0
0
0
0
0
0
0
0
0
0
0
0
0
0
0
1
1
0
0
0
0
0
0
0
0
0
0
0
0
0
0
0
0
0
0
0
0
1
1
0
0
0
0
0
0
0
0
0
0
0
0
0
0
0
0
0
0
0
0
0
0
0
0
0
0
0
0
0
0
0
0
0
1
1
0
0
0
0
0
0
0
0
0
0
0
0
0
0
0
0
0
0
0
0
1
1
0
0
0
0
0
0
0
0
0
0
0
0
0
0
0
0
0
0
0
0
0
0
0
0
0
0
0
0
0
0
0
0
0
1
1
0
0
0
0
0
0
0
0
0
0
0
0
0
0
0
0
0
0
0
0
1
1
0
0
0
0
0
0
0
0
0
0
0
0
0
0
0
0
0
0
0
0
0
0
0
0
0
0
0
0
0
0
0
0
0
1
1
0
0
0
0
0
0
0
0
0
0
0
0
0
0
0
0
0
0
0
0
1
1
0
0
0
0
0
0
0
0
0
0
0
0
0
0
0
0
0
0
0
0
0
0
0
0
0
0
0
0
0
0
0
0
0
1
1
0
0
0
0
0
0
0
0
0
0
0
0
0
0
0
0
0
0
0
0
1
1
0
0
0
0
0
0
0
0
0
0
0
0
0
0
0
0
0
0
0
0
0
0
0
0
0
0
0
0
0
0
0
0
0
1
1
0
0
0
0
0
0
0
0
0
0
0
0
0
0
0
0
0
0
0
0
1
1
0
0
0
0
0
0
0
0
0
0
0
0
0
0
0
0
0
0
0
0
0
0
0
0
0
0
0
0
0
0
0
0
0
1
1
0
0
0
0
0
0
0
0
0
0
0
0
0
0
0
0
0
0
0
0
1
1
0
0
0
0
0
0
0
0
0
0
0
0
0
0
0
0
0
0
0
0
0
0
0
0
0
0
0
0
0
0
0
0
0
1
1
0
0
0
0
0
0
0
0
0
0
0
0
0
0
0
0
0
0
0
0
1
1
0
0
0
0
0
0
0
0
0
0
0
0
0
0
0
0
0
0
0
0
0
0
0
0
0
0
0
0
0
0
0
0
0
1
1
0
0
0
0
0
0
0
0
0
0
0
0
0
0
0
0
0
0
0
0
1
1
0
0
0
0
0
0
0
0
0
0
0
0
0
0
0
0
0
0
0
0
0
0
0
0
0
0
0
0
0
0
0
0
0
1
1
0
0
0
0
0
0
0
0
0
0
0
0
0
0
0
0
0
0
0
0
1
1
0
0
0
0
0
0
0
0
0
0
0
0
0
0
0
0
0
0
0
0
0
0
0
0
0
0
0
0
0
0
0
0
0
1
1
0
0
0
0
0
0
0
0
0
0
0
0
0
0
0
0
0
0
0
0
1
1
0
0
0
0
0
0
0
0
0
0
0
0
0
0
0
0
0
0
0
0
0
0
0
0
0
0
0
0
0
0
0
0
0
1
1
0
0
0
0
0
0
0
0
0
0
0
0
0
0
0
0
0
0
0
0
0
1
1
0
0
0
0
0
0
0
0
0
0
0
0
0
0
0
0
0
0
0
0
0
0
0
0
0
0
0
0
0
0
0
0
0
0
1
1
0
0
0
0
0
0
0
0
0
0
0
0
0
0
0
0
0
0
0
0
0
0
0
0
0
0
0
0
0
0
0
0
0
0
0
0
0
0
0
0
0
0
0
0
0
0
0
0
0
0
0
0
0
0
0
0
0
1
1
0
0
0
0
0
0
0
0
0
0
0
0
0
0
0
0
0
0
0
0
0
0
0
0
0
0
0
0
0
0
0
0
0
0
0
0
0
0
0
0
0
0
0
0
0
0
0
0
0
0
0
0
0
0
0
0
0
1
1
0
0
0
0
0
0
0
0
0
0
0
0
0
0
0
0
0
0
0
0
0
0
0
0
0
0
0
0
0
0
0
0
0
0
0
0
0
0
0
0
0
0
0
0
0
0
0
0
0
0
0
0
0
0
0
0
0
1
1
0
0
0
0
0
0
0
0
0
0
0
0
0
0
0
0
0
0
0
0
0
0
0
0
0
0
0
0
0
0
0
0
0
0
0
0
0
0
0
0
0
0
0
0
0
0
0
0
0
0
0
0
0
0
0
0
0
1
1
0
0
0
0
0
0
0
0
0
0
0
0
0
0
0
0
0
0
0
0
0
0
0
0
0
0
0
0
0
0
0
0
0
0
0
0
0
0
0
0
0
0
0
0
0
0
0
0
0
0
0
0
0
0
0
0
0
1
1
0
0
0
0
0
0
0
0
0
0
0
0
0
0
0
0
0
0
0
0
0
0
0
0
0
0
0
0
0
0
0
0
0
0
0
0
0
0
0
0
0
0
0
0
0
0
0
0
0
0
0
0
0
0
0
0
0
1
1
0
0
0
0
0
0
0
0
0
0
0
0
0
0
0
0
0
0
0
0
0
0
0
0
0
0
0
0
0
0
0
0
0
0
0
0
0
0
0
0
0
0
0
0
0
0
0
0
0
0
0
0
0
0
0
0
0
1
1
0
0
0
0
0
0
0
0
0
0
0
0
0
0
0
0
0
0
0
0
0
0
0
0
0
0
0
0
0
0
0
0
0
0
0
0
0
0
0
0
0
0
0
0
0
0
0
0
0
0
0
0
0
0
0
0
0
1
1
0
0
0
0
0
0
0
0
0
0
0
0
0
0
0
0
0
0
0
0
0
0
0
0
0
0
0
0
0
0
0
0
0
0
0
0
0
0
0
0
0
0
0
0
0
0
0
0
0
0
0
0
0
0
0
0
0
1
1
0
0
0
0
0
0
0
0
0
0
0
0
0
0
0
0
0
0
0
0
0
0
0
0
0
0
0
0
0
0
0
0
0
0
0
0
0
0
0
0
0
0
0
0
0
0
0
0
0
0
0
0
0
0
0
0
0
1
1
0
0
0
0
0
0
0
0
0
0
0
0
0
0
0
0
0
0
0
0
0
1
1
0
0
0
0
0
0
0
0
0
0
0
0
0
0
0
0
0
0
0
0
0
0
0
0
0
0
0
0
0
0
0
0
0
0
1
1
0
0
0
0
0
0
0
0
0
0
0
0
0
0
0
0
0
0
0
0
1
1
0
0
0
0
0
0
0
0
0
0
0
0
0
0
0
0
0
0
0
0
0
0
0
0
0
0
0
0
0
0
0
0
0
1
1
0
0
0
0
0
0
0
0
0
0
0
0
0
0
0
0
0
0
0
0
1
1
0
0
0
0
0
0
0
0
0
0
0
0
0
0
0
0
0
0
0
0
0
0
0
0
0
0
0
0
0
0
0
0
0
1
1
0
0
0
0
0
0
0
0
0
0
0
0
0
0
0
0
0
0
0
0
1
1
0
0
0
0
0
0
0
0
0
0
0
0
0
0
0
0
0
0
0
0
0
0
0
0
0
0
0
0
0
0
0
0
0
1
1
0
0
0
0
0
0
0
0
0
0
0
0
0
0
0
0
0
0
0
0
1
1
0
0
0
0
0
0
0
0
0
0
0
0
0
0
0
0
0
0
0
0
0
0
0
0
0
0
0
0
0
0
0
0
0
1
1
0
0
0
0
0
0
0
0
0
0
0
0
0
0
0
0
0
0
0
0
1
1
0
0
0
0
0
0
0
0
0
0
0
0
0
0
0
0
0
0
0
0
0
0
0
0
0
0
0
0
0
0
0
0
0
1
1
0
0
0
0
0
0
0
0
0
0
0
0
0
0
0
0
0
0
0
0
1
1
0
0
0
0
0
0
0
0
0
0
0
0
0
0
0
0
0
0
0
0
0
0
0
0
0
0
0
0
0
0
0
0
0
1
1
0
0
0
0
0
0
0
0
0
0
0
0
0
0
0
0
0
0
0
0
1
1
0
0
0
0
0
0
0
0
0
0
0
0
0
0
0
0
0
0
0
0
0
0
0
0
0
0
0
0
0
0
0
0
0
1
1
0
0
0
0
0
0
0
0
0
0
0
0
0
0
0
0
0
0
0
0
1
1
0
0
0
0
0
0
0
0
0
0
0
0
0
0
0
0
0
0
0
0
0
0
0
0
0
0
0
0
0
0
0
0
0
1
1
0
0
0
0
0
0
0
0
0
0
0
0
0
0
0
0
0
0
0
0
1
1
0
0
0
0
0
0
0
0
0
0
0
0
0
0
0
0
0
0
0
0
0
0
0
0
0
0
0
0
0
0
0
0
0
1
1
0
0
0
0
0
0
0
0
0
0
0
0
0
0
0
0
0
0
0
0
1
1
0
0
0
0
0
0
0
0
0
0
0
0
0
0
0
0
0
0
0
0
0
0
0
0
0
0
0
0
0
0
0
0
0
1
1
0
0
0
0
0
0
0
0
0
0
0
0
0
0
0
0
0
0
0
0
1
1
0
0
0
0
0
0
0
0
0
0
0
0
0
0
0
0
0
0
0
0
0
0
0
0
0
0
0
0
0
0
0
0
0
1
1
0
0
0
0
0
0
0
0
0
0
0
0
0
0
0
0
0
0
0
0
1
1
0
0
0
0
0
0
0
0
0
0
0
0
0
0
0
0
0
0
0
0
0
0
0
0
0
0
0
0
0
0
0
0
0
1
1
0
0
0
0
0
0
0
0
0
0
0
0
0
0
0
0
0
0
0
0
1
1
0
0
0
0
0
0
0
0
0
0
0
0
0
0
0
0
0
0
0
0
0
0
0
0
0
0
0
0
0
0
0
0
0
1
1
0
0
0
0
0
0
0
0
0
0
0
0
0
0
0
0
0
0
0
0
1
1
0
0
0
0
0
0
0
0
0
0
0
0
0
0
0
0
0
0
0
0
0
0
0
0
0
0
0
0
0
0
0
0
0
1
1
0
0
0
0
0
0
0
0
0
0
0
0
0
0
0
0
0
0
0
0
1
1
0
0
0
0
0
0
0
0
0
0
0
0
0
0
0
0
0
0
0
0
0
0
0
0
0
0
0
0
0
0
0
0
0
1
1
0
0
0
0
0
0
0
0
0
0
0
0
0
0
0
0
0
0
0
0
1
1
0
0
0
0
0
0
0
0
0
0
0
0
0
0
0
0
0
0
0
0
0
0
0
0
0
0
0
0
0
0
0
0
0
1
1
0
0
0
0
0
0
0
0
0
0
0
0
0
0
0
0
0
0
0
0
1
1
0
0
0
0
0
0
0
0
0
0
0
0
0
0
0
0
0
0
0
0
0
0
0
0
0
0
0
0
0
0
0
0
0
1
1
0
0
0
0
0
0
0
0
0
0
0
0
0
0
0
0
0
0
0
0
1
1
0
0
0
0
0
0
0
0
0
0
0
0
0
0
0
0
0
0
0
0
0
0
0
0
0
0
0
0
0
0
0
0
0
1
1
0
0
0
0
0
0
0
0
0
0
0
0
0
0
0
0
0
0
0
0
1
1
0
0
0
0
0
0
0
0
0
0
0
0
0
0
0
0
0
0
0
0
0
0
0
0
0
0
0
0
0
0
0
0
0
1
1
0
0
0
0
0
0
0
0
0
0
0
0
0
0
0
0
0
0
0
0
1
1
0
0
0
0
0
0
0
0
0
0
0
0
0
0
0
0
0
0
0
0
0
0
0
0
0
0
0
0
0
0
0
0
0
1
1
0
0
0
0
0
0
0
0
0
0
0
0
0
0
0
0
0
0
0
0
1
1
0
0
0
0
0
0
0
0
0
0
0
0
0
0
0
0
0
0
0
0
0
0
0
0
0
0
0
0
0
0
0
0
0
1
1
1
1
1
1
1
1
1
1
1
1
1
1
1
1
1
1
1
1
1
1
1
1
1
1
1
1
1
1
1
1
1
1
1
1
1
1
1
1
1
1
1
1
1
1
1
1
1
1
1
1
1
1
1
1
1
1
				</DataArray>
				<DataArray type="Float64" Name="h" NumberOfComponents="1" Format="ascii">
1.5000000000
1.5000000000
1.5000000000
1.5000000000
1.5000000000
1.4999999995
1.4999999929
1.4999999431
1.4999996960
1.4999987819
1.4999961027
1.4999896327
1.4999764120
1.4999531038
1.4999171381
1.4998680884
1.4998086851
1.4997449506
1.4996853114
1.4996388927
1.4996134469
1.4996134469
1.0000009721
1.0000020057
1.0000017106
1.0000012466
1.0000007775
1.0000004147
1.0000001884
1.0000000724
1.0000000233
1.0000000061
1.0000000013
1.0000000002
1.0000000000
1.0000000000
1.0000000000
1.0000000000
1.0000000000
1.0000000000
1.0000000000
1.0000000000
1.0000000000
1.0000000000
1.0000000000
1.0000000000
1.0000000000
1.0000000000
1.0000000000
1.0000000000
1.0000000000
1.0000000000
1.0000000000
1.0000000000
1.0000000000
1.0000000000
1.0000000000
1.5000000000
1.5000000000
1.5000000000
1.5000000000
1.4999999997
1.4999999944
1.4999999531
1.4999997393
1.4999989125
1.4999963767
1.4999899618
1.4999762105
1.4999507283
1.4999092881
1.4998494662
1.4997722159
1.4996826931
1.4995899221
1.4995053654
1.4994407581
1.4994057301
1.4996134469
1.0000020057
1.0000039487
1.0000034210
1.0000025707
1.0000016768
1.0000009485
1.0000004638
1.0000001949
1.0000000698
1.0000000210
1.0000000052
1.0000000010
1.0000000002
1.0000000000
1.0000000000
1.0000000000
1.0000000000
1.0000000000
1.0000000000
1.0000000000
1.0000000000
1.0000000000
1.0000000000
1.0000000000
1.0000000000
1.0000000000
1.0000000000
1.0000000000
1.0000000000
1.0000000000
1.0000000000
1.0000000000
1.0000000000
1.0000000000
1.0000000000
1.5000000000
1.5000000000
1.5000000000
1.4999999996
1.4999999933
1.4999999449
1.4999996959
1.4999987350
1.4999957800
1.4999882487
1.4999719086
1.4999411153
1.4998899210
1.4998139190
1.4997122256
1.4995888452
1.4994528663
1.4993173791
1.4991974595
1.4991076718
1.4990595664
1.4993519725
1.0000060657
1.0000110825
1.0000097677
1.0000075909
1.0000052015
1.0000031382
1.0000016618
1.0000007683
1.0000003078
1.0000001058
1.0000000307
1.0000000074
1.0000000014
1.0000000002
1.0000000000
1.0000000000
1.0000000000
1.0000000000
1.0000000000
1.0000000000
1.0000000000
1.0000000000
1.0000000000
1.0000000000
1.0000000000
1.0000000000
1.0000000000
1.0000000000
1.0000000000
1.0000000000
1.0000000000
1.0000000000
1.0000000000
1.0000000000
1.0000000000
1.5000000000
1.5000000000
1.4999999995
1.4999999920
1.4999999329
1.4999996191
1.4999983731
1.4999944341
1.4999841322
1.4999612326
1.4999170835
1.4998420554
1.4997281684
1.4995720807
1.4993772652
1.4991545803
1.4989210934
1.4986976389
1.4985058844
1.4983654088
1.4982911134
1.4987536368
1.0000201505
1.0000345901
1.0000309103
1.0000246799
1.0000175924
1.0000111731
1.0000063010
1.0000031396
1.0000013731
1.0000005226
1.0000001712
1.0000000476
1.0000000110
1.0000000021
1.0000000003
1.0000000000
1.0000000000
1.0000000000
1.0000000000
1.0000000000
1.0000000000
1.0000000000
1.0000000000
1.0000000000
1.0000000000
1.0000000000
1.0000000000
1.0000000000
1.0000000000
1.0000000000
1.0000000000
1.0000000000
1.0000000000
1.0000000000
1.0000000000
1.5000000000
1.4999999995
1.4999999911
1.4999999225
1.4999995480
1.4999980156
1.4999930242
1.4999795785
1.4999488122
1.4998877973
1.4997812335
1.4996151091
1.4993812948
1.4990813008
1.4987276714
1.4983427081
1.4979551977
1.4975963581
1.4972961174
1.4970800517
1.4969669764
1.4976814399
1.0000617962
1.0001003343
1.0000907316
1.0000741538
1.0000546995
1.0000363284
1.0000216453
1.0000115151
1.0000054369
1.0000022616
1.0000008212
1.0000002573
1.0000000686
1.0000000152
1.0000000027
1.0000000004
1.0000000000
1.0000000000
1.0000000000
1.0000000000
1.0000000000
1.0000000000
1.0000000000
1.0000000000
1.0000000000
1.0000000000
1.0000000000
1.0000000000
1.0000000000
1.0000000000
1.0000000000
1.0000000000
1.0000000000
1.0000000000
1.0000000000
1.4999999992
1.4999999899
1.4999999151
1.4999994913
1.4999977057
1.4999917174
1.4999751118
1.4999360190
1.4998563115
1.4997132992
1.4994844712
1.4991541060
1.4987193049
1.4981929954
1.4976028249
1.4969868929
1.4963880775
1.4958487304
1.4954068354
1.4950934317
1.4949308057
1.4959645537
1.0001734611
1.0002674490
1.0002444688
1.0002040759
1.0001552907
1.0001074081
1.0000672672
1.0000379659
1.0000192032
1.0000086473
1.0000034395
1.0000011970
1.0000003602
1.0000000923
1.0000000198
1.0000000034
1.0000000005
1.0000000000
1.0000000000
1.0000000000
1.0000000000
1.0000000000
1.0000000000
1.0000000000
1.0000000000
1.0000000000
1.0000000000
1.0000000000
1.0000000000
1.0000000000
1.0000000000
1.0000000000
1.0000000000
1.0000000000
1.0000000000
1.4999999850
1.4999999021
1.4999994561
1.4999974829
1.4999906694
1.4999712273
1.4999241501
1.4998255068
1.4996438096
1.4993456744
1.4989047947
1.4983109356
1.4975753276
1.4967304012
1.4958243830
1.4949135237
1.4940545609
1.4932992144
1.4926912858
1.4922653270
1.4920458231
1.4934376432
1.0004466627
1.0006561771
1.0006057742
1.0005156476
1.0004037824
1.0002899049
1.0001900552
1.0001132223
1.0000609624
1.0000294876
1.0000127247
1.0000048591
1.0000016261
1.0000004713
1.0000001165
1.0000000241
1.0000000040
1.0000000005
1.0000000001
1.0000000000
1.0000000000
1.0000000000
1.0000000000
1.0000000000
1.0000000000
1.0000000000
1.0000000000
1.0000000000
1.0000000000
1.0000000000
1.0000000000
1.0000000000
1.0000000000
1.0000000000
1.0000000000
1.4999998590
1.4999993616
1.4999973684
1.4999900174
1.4999684054
1.4999145770
1.4997986505
1.4995794324
1.4992106510
1.4986523249
1.4978834954
1.4969109450
1.4957705256
1.4945210630
1.4932338185
1.4919819424
1.4908325503
1.4898425183
1.4890576410
1.4885131599
1.4882341208
1.4899832687
1.0010575853
1.0014846822
1.0013834013
1.0011992313
1.0009644929
1.0007169582
1.0004903691
1.0003070519
1.0001750776
1.0000903852
1.0000419839
1.0000174222
1.0000064062
1.0000020669
1.0000005781
1.0000001381
1.0000000276
1.0000000045
1.0000000006
1.0000000001
1.0000000000
1.0000000000
1.0000000000
1.0000000000
1.0000000000
1.0000000000
1.0000000000
1.0000000000
1.0000000000
1.0000000000
1.0000000000
1.0000000000
1.0000000000
1.0000000000
1.0000000000
1.4999991106
1.4999968741
1.4999897714
1.4999670129
1.4999085021
1.4997789081
1.4995271665
1.4990927644
1.4984192593
1.4974711152
1.4962470540
1.4947840404
1.4931510620
1.4914359753
1.4897307318
1.4881200656
1.4866751959
1.4854523856
1.4844949608
1.4838359725
1.4834996151
1.4855635515
1.0023067507
1.0031023377
1.0029162466
1.0025720512
1.0021215431
1.0016295775
1.0011597910
1.0007607633
1.0004574205
1.0002507132
1.0001245418
1.0000557167
1.0000222903
1.0000079091
1.0000024646
1.0000006665
1.0000001540
1.0000000298
1.0000000047
1.0000000006
1.0000000001
1.0000000000
1.0000000000
1.0000000000
1.0000000000
1.0000000000
1.0000000000
1.0000000000
1.0000000000
1.0000000000
1.0000000000
1.0000000000
1.0000000000
1.0000000000
1.0000000000
1.4999957833
1.4999877596
1.4999667822
1.4999066636
1.4997687589
1.4994931936
1.4990048869
1.4982288007
1.4971109606
1.4956373026
1.4938422107
1.4918031816
1.4896252916
1.4874220208
1.4852987988
1.4833435793
1.4816240356
1.4801898430
1.4790778420
1.4783167330
1.4779291989
1.4802314397
1.0046396703
1.0059904148
1.0056791193
1.0050929156
1.0043042539
1.0034116440
1.0025219894
1.0017286727
1.0010924267
1.0006329916
1.0003344725
1.0001602533
1.0000691914
1.0000267323
1.0000091663
1.0000027625
1.0000007230
1.0000001619
1.0000000304
1.0000000047
1.0000000006
1.0000000000
1.0000000000
1.0000000000
1.0000000000
1.0000000000
1.0000000000
1.0000000000
1.0000000000
1.0000000000
1.0000000000
1.0000000000
1.0000000000
1.0000000000
1.0000000000
1.4999840115
1.4999601196
1.4999073546
1.4997691560
1.4994817037
1.4989573053
1.4981014735
1.4968383060
1.4951356015
1.4930194706
1.4905723516
1.4879158180
1.4851867697
1.4825153168
1.4800099643
1.4777524560
1.4757996162
1.4741895995
1.4729499876
1.4721041809
1.4716737646
1.4741188499
1.0086067791
1.0106871425
1.0102164561
1.0093123717
1.0080596206
1.0065870800
1.0050521533
1.0036128832
1.0023940873
1.0014617864
1.0008180982
1.0004175003
1.0001932342
1.0000806232
1.0000301141
1.0000099886
1.0000029137
1.0000007386
1.0000001603
1.0000000292
1.0000000043
1.0000000005
1.0000000000
1.0000000000
1.0000000000
1.0000000000
1.0000000000
1.0000000000
1.0000000000
1.0000000000
1.0000000000
1.0000000000
1.0000000000
1.0000000000
1.0000000000
1.4999495381
1.4998888180
1.4997734283
1.4994925489
1.4989554928
1.4980516953
1.4966814746
1.4947890111
1.4923849903
1.4895502549
1.4864198621
1.4831547860
1.4799133180
1.4768299696
1.4740052406
1.4715061865
1.4693731427
1.4676295589
1.4662925231
1.4653805073
1.4649155960
1.4674057295
1.0147196572
1.0176081870
1.0169713591
1.0157197787
1.0139279900
1.0117335807
1.0093331745
1.0069582840
1.0048287612
1.0031002011
1.0018318258
1.0009913949
1.0004891337
1.0002188731
1.0000883073
1.0000319083
1.0000102430
1.0000028932
1.0000007106
1.0000001495
1.0000000264
1.0000000038
1.0000000004
1.0000000000
1.0000000000
1.0000000000
1.0000000000
1.0000000000
1.0000000000
1.0000000000
1.0000000000
1.0000000000
1.0000000000
1.0000000000
1.0000000000
1.4998636340
1.4997290796
1.4995059794
1.4989943645
1.4980841396
1.4966574884
1.4946319562
1.4919950541
1.4888171796
1.4852399933
1.4814467754
1.4776266255
1.4739455822
1.4705300450
1.4674629593
1.4647904573
1.4625329436
1.4606977586
1.4592915947
1.4583294743
1.4578367351
1.4602846041
1.0232056452
1.0267992935
1.0260380377
1.0244990038
1.0222124469
1.0192827692
1.0159047847
1.0123612776
1.0089804626
1.0060566211
1.0037707602
1.0021573033
1.0011295394
1.0005389527
1.0002332177
1.0000910122
1.0000318178
1.0000098862
1.0000027043
1.0000006436
1.0000001313
1.0000000225
1.0000000032
1.0000000003
1.0000000000
1.0000000000
1.0000000000
1.0000000000
1.0000000000
1.0000000000
1.0000000000
1.0000000000
1.0000000000
1.0000000000
1.0000000000
1.4996776261
1.4994130630
1.4990261347
1.4981807087
1.4967655678
1.4946807046
1.4918868802
1.4884345656
1.4844622100
1.4801690678
1.4757753832
1.4714839532
1.4674549904
1.4637962992
1.4605664534
1.4577869834
1.4554568665
1.4535671884
1.4521151134
1.4511143962
1.4505975029
1.4529320254
1.0337700781
1.0377638395
1.0369728952
1.0353104993
1.0327298263
1.0292540811
1.0250099744
1.0202636802
1.0154155700
1.0109210569
1.0071585476
1.0043209243
1.0023929953
1.0012118558
1.0005590716
1.0002339091
1.0000882717
1.0000298504
1.0000089755
1.0000023771
1.0000005481
1.0000001084
1.0000000180
1.0000000025
1.0000000003
1.0000000000
1.0000000000
1.0000000000
1.0000000000
1.0000000000
1.0000000000
1.0000000000
1.0000000000
1.0000000000
1.0000000000
1.4993215941
1.4988529910
1.4982430271
1.4969609223
1.4949209784
1.4920707055
1.4884380199
1.4841484976
1.4794079896
1.4744632877
1.4695572898
1.4648924268
1.4606119442
1.4567976771
1.4534798211
1.4506536474
1.4482963449
1.4463830111
1.4449021951
1.4438688355
1.4433276367
1.4454922116
1.0455642496
1.0495418096
1.0488477642
1.0472912719
1.0447330798
1.0410885565
1.0363554395
1.0306849850
1.0244453534
1.0182000492
1.0125625886
1.0079944353
1.0046734648
1.0025031433
1.0012250993
1.0005461027
1.0002207746
1.0000805183
1.0000263237
1.0000076552
1.0000019618
1.0000004380
1.0000000839
1.0000000135
1.0000000018
1.0000000002
1.0000000000
1.0000000000
1.0000000000
1.0000000000
1.0000000000
1.0000000000
1.0000000000
1.0000000000
1.0000000000
1.4987102494
1.4979522730
1.4970672634
1.4952629547
1.4925082596
1.4888263248
1.4843300666
1.4792244078
1.4737756656
1.4682653429
1.4629453144
1.4580063311
1.4535669251
1.4496785659
1.4463410756
1.4435227490
1.4411786752
1.4392677157
1.4377700746
1.4367042592
1.4361339679
1.4380794295
1.0574568485
1.0610471585
1.0605750723
1.0593459169
1.0571343434
1.0537620300
1.0490827349
1.0430567185
1.0358798507
1.0280733907
1.0204165083
1.0137007860
1.0084473591
1.0047743006
1.0024694772
1.0011666778
1.0005019605
1.0001958844
1.0000689795
1.0000217816
1.0000061207
1.0000015166
1.0000003275
1.0000000608
1.0000000095
1.0000000012
1.0000000001
1.0000000000
1.0000000000
1.0000000000
1.0000000000
1.0000000000
1.0000000000
1.0000000000
1.0000000000
1.4977560380
1.4966221959
1.4954260833
1.4930442558
1.4895251398
1.4849889692
1.4796441226
1.4737735165
1.4676947591
1.4617122690
1.4560763059
1.4509582889
1.4464474010
1.4425623041
1.4392711300
1.4365140985
1.4342228500
1.4323384823
1.4308319927
1.4297276091
1.4291172215
1.4307936664
1.0684516770
1.0714410298
1.0712963134
1.0705544975
1.0689198093
1.0661675868
1.0620517839
1.0563391603
1.0489576590
1.0401947650
1.0307948348
1.0218022777
1.0141783228
1.0084460972
1.0046045629
1.0022957933
1.0010452998
1.0004334517
1.0001630610
1.0000553692
1.0000168652
1.0000045739
1.0000010944
1.0000002284
1.0000000410
1.0000000062
1.0000000008
1.0000000001
1.0000000000
1.0000000000
1.0000000000
1.0000000000
1.0000000000
1.0000000000
1.0000000000
1.4963855517
1.4947984791
1.4932751896
1.4902951742
1.4860025828
1.4806272407
1.4744771257
1.4679094779
1.4612853401
1.4549237421
1.4490667611
1.4438621525
1.4393670502
1.4355652652
1.4323910310
1.4297537350
1.4275583745
1.4257251194
1.4242136347
1.4230557677
1.4223844064
1.4237368484
1.0779582232
1.0802929809
1.0805730548
1.0804172583
1.0794688765
1.0775116004
1.0742765396
1.0694086294
1.0625762283
1.0537104594
1.0432707579
1.0323110537
1.0221681201
1.0139141492
1.0079818132
1.0041863131
1.0020075223
1.0008791796
1.0003507412
1.0001269736
1.0000415032
1.0000121746
1.0000031813
1.0000007338
1.0000001478
1.0000000256
1.0000000037
1.0000000004
1.0000000000
1.0000000000
1.0000000000
1.0000000000
1.0000000000
1.0000000000
1.0000000000
1.4945537890
1.4924525117
1.4906045770
1.4870363579
1.4819942477
1.4758218280
1.4689267058
1.4617371865
1.4546532786
1.4480046525
1.4420223073
1.4368280929
1.4324446208
1.4288174044
1.4258421654
1.4233921169
1.4213403607
1.4195816476
1.4180612194
1.4168200451
1.4160495637
1.4170218634
1.0857663446
1.0874796631
1.0883080410
1.0888167040
1.0885884441
1.0874573228
1.0852028401
1.0814481655
1.0756989872
1.0675418191
1.0569890771
1.0447941038
1.0324073196
1.0214290216
1.0129226420
1.0071127896
1.0035783694
1.0016462523
1.0006918891
1.0002649669
1.0000921058
1.0000289197
1.0000081523
1.0000020482
1.0000004546
1.0000000881
1.0000000147
1.0000000021
1.0000000002
1.0000000000
1.0000000000
1.0000000000
1.0000000000
1.0000000000
1.0000000000
1.4922519152
1.4895946427
1.4874380529
1.4833130437
1.4775670897
1.4706558640
1.4630848420
1.4553520667
1.4478958980
1.4410564916
1.4350532604
1.4299802112
1.4258212090
1.4224768479
1.4197961799
1.4176081223
1.4157472979
1.4140783918
1.4125288016
1.4111487666
1.4102104327
1.4107595947
1.0918295988
1.0929645729
1.0945362461
1.0958189359
1.0963404763
1.0960103296
1.0947006724
1.0920960893
1.0876630117
1.0807597726
1.0709497223
1.0584664835
1.0445151107
1.0309866711
1.0196294357
1.0113187463
1.0059548290
1.0028644706
1.0012607172
1.0005071068
1.0001859227
1.0000618948
1.0000186177
1.0000050298
1.0000012118
1.0000002580
1.0000000480
1.0000000077
1.0000000010
1.0000000001
1.0000000000
1.0000000000
1.0000000000
1.0000000000
1.0000000000
1.4895072529
1.4862702901
1.4838282594
1.4791891321
1.4727960478
1.4652123429
1.4570395764
1.4488464646
1.4411122063
1.4341896619
1.4282866781
1.4234657127
1.4196639440
1.4167258729
1.4144418952
1.4125867270
1.4109505327
1.4093651042
1.4077367914
1.4061208705
1.4048926201
1.4050111382
1.0960160115
1.0965851764
1.0992328342
1.1014867107
1.1028554817
1.1033335342
1.1029027263
1.1013612545
1.0982397609
1.0928164806
1.0843275327
1.0724418164
1.0578276414
1.0422923085
1.0281114906
1.0169556909
1.0093033740
1.0046600366
1.0021361140
1.0008965028
1.0003440127
1.0001203626
1.0000382468
1.0000109840
1.0000028343
1.0000006525
1.0000001329
1.0000000237
1.0000000036
1.0000000005
1.0000000001
1.0000000000
1.0000000000
1.0000000000
1.0000000000
1.4863784256
1.4825532631
1.4798513259
1.4747444581
1.4677649505
1.4595790484
1.4508834677
1.4423202307
1.4344134790
1.4275314435
1.4218688424
1.4174490851
1.4141495246
1.4117425640
1.4099454858
1.4084698729
1.4070592052
1.4055135357
1.4037145947
1.4017067551
1.3999754259
1.3997138972
1.0978310568
1.0978083524
1.1021521491
1.1057747407
1.1082540322
1.1096589234
1.1100860426
1.1094861354
1.1075340012
1.1035609867
1.0966433311
1.0859841696
1.0715898720
1.0548240018
1.0381602769
1.0240341846
1.0137191668
1.0071289096
1.0033862662
1.0014736071
1.0005875231
1.0002142532
1.0000712496
1.0000215208
1.0000058759
1.0000014418
1.0000003157
1.0000000612
1.0000000104
1.0000000015
1.0000000002
1.0000000000
1.0000000000
1.0000000000
1.0000000000
1.4829491313
1.4785397912
1.4756033393
1.4700752628
1.4625711979
1.4538563448
1.4447224079
1.4358878396
1.4279255711
1.4212201520
1.4159479188
1.4120803837
1.4094165629
1.4076379525
1.4063761163
1.4052770304
1.4040436708
1.4024513747
1.4003503877
1.3977310172
1.3951333309
1.3946114866
1.0958761186
1.0951995607
1.1026328352
1.1085490649
1.1127507837
1.1153828795
1.1167103203
1.1169119177
1.1158925993
1.1131516266
1.1077654289
1.0986361045
1.0851390590
1.0679597952
1.0493842835
1.0324042809
1.0191936888
1.0103097580
1.0050503778
1.0022653113
1.0009318627
1.0003513811
1.0001211960
1.0000381145
1.0000108857
1.0000028099
1.0000006518
1.0000001349
1.0000000247
1.0000000040
1.0000000005
1.0000000001
1.0000000000
1.0000000000
1.0000000000
1.4793236933
1.4743456685
1.4711997984
1.4652971510
1.4573317902
1.4481644009
1.4386812143
1.4296789589
1.4217806247
1.4153837180
1.4106348745
1.4074343041
1.4054800672
1.4043459125
1.4035751648
1.4027628024
1.4015977264
1.3998553711
1.3973522328
1.3939355234
1.3899395927
1.3893364033
1.0861810836
1.0847415892
1.0994510844
1.1100133300
1.1171225869
1.1214038114
1.1236073105
1.1243414140
1.1238667397
1.1219544302
1.1178101601
1.1101991881
1.0979848456
1.0810875280
1.0612724705
1.0417635075
1.0255963347
1.0141617840
1.0071211954
1.0032734198
1.0013799768
1.0005339268
1.0001893625
1.0000614063
1.0000181463
1.0000048667
1.0000011788
1.0000002564
1.0000000498
1.0000000085
1.0000000013
1.0000000002
1.0000000000
1.0000000000
1.0000000000
1.4756266641
1.4701077646
1.4667786058
1.4605502536
1.4521902130
1.4426503816
1.4329091060
1.4238397715
1.4161112398
1.4101226864
1.4059695760
1.4034508385
1.4021332736
1.4014645201
1.4009036575
1.4000268710
1.3985761909
1.3964471187
1.3936249155
1.3900702138
1.3856753132
1.3851979815
1.0558555027
1.0533984366
1.0918273141
1.1126132945
1.1239992359
1.1297640925
1.1321989220
1.1327239274
1.1320790235
1.1303537288
1.1269403794
1.1205765823
1.1097453982
1.0936225885
1.0732285427
1.0516657198
1.0326619514
1.0185470360
1.0095304191
1.0044648386
1.0019164963
1.0007552657
1.0002731616
1.0000904957
1.0000273830
1.0000075405
1.0000018816
1.0000004234
1.0000000854
1.0000000153
1.0000000024
1.0000000003
1.0000000000
1.0000000000
1.0000000000
1.4720037241
1.4659858356
1.4625021850
1.4560018680
1.4473198036
1.4374930336
1.4275867988
1.4185452823
1.4110727148
1.4055495022
1.4019858559
1.4000323149
1.3990678047
1.3983454318
1.3971374279
1.3948087643
1.3907690938
1.3842715654
1.3739920421
1.3571453782
1.3273751261
1.2699777695
1.1982973298
1.1998287890
1.1313078996
1.1327059017
1.1402617182
1.1444709270
1.1462214361
1.1460913726
1.1447595796
1.1428327885
1.1406803571
1.1382703873
1.1349813812
1.1294886786
1.1199725947
1.1049389788
1.0845621365
1.0615203879
1.0399819909
1.0232194548
1.0121407626
1.0057670349
1.0025053996
1.0009988051
1.0003655711
1.0001226675
1.0000376398
1.0000105259
1.0000026719
1.0000006128
1.0000001263
1.0000000233
1.0000000038
1.0000000005
1.0000000001
1.0000000000
1.0000000000
1.4686183421
1.4621585885
1.4585523855
1.4518394848
1.4429150172
1.4328936761
1.4229211812
1.4140064864
1.4068810509
1.4018938786
1.3989544374
1.3975557118
1.3969018176
1.3961039880
1.3943576941
1.3910176286
1.3855390656
1.3772975350
1.3653008164
1.3477393189
1.3211945544
1.2795834742
1.1956017557
1.1973460817
1.1605597894
1.1545169982
1.1553243570
1.1561499019
1.1558187889
1.1542518152
1.1518374615
1.1490761976
1.1463562488
1.1437496566
1.1407738905
1.1361874345
1.1280459538
1.1143685140
1.0945413591
1.0706472280
1.0470386372
1.0278434935
1.0147575396
1.0070759355
1.0030950839
1.0012408678
1.0004565752
1.0001540285
1.0000475305
1.0000133718
1.0000034160
1.0000007888
1.0000001638
1.0000000304
1.0000000050
1.0000000007
1.0000000001
1.0000000000
1.0000000000
1.4656404487
1.4588105993
1.4551145460
1.4482491465
1.4391608679
1.4290321924
1.4190803441
1.4103712761
1.4036561890
1.3992451581
1.3969426208
1.3960912213
1.3957482683
1.3949349155
1.3928399015
1.3888877894
1.3826642833
1.3737451925
1.3614817201
1.3447459266
1.3215783031
1.2887384720
1.2305364393
1.2149588585
1.1861634806
1.1740506421
1.1688204295
1.1657332226
1.1629661091
1.1598865987
1.1565012757
1.1530982158
1.1499951797
1.1473020891
1.1446404653
1.1408656865
1.1339945231
1.1217111309
1.1027372112
1.0785081643
1.0533465137
1.0320739696
1.0171733403
1.0082812328
1.0036323288
1.0014579134
1.0005365999
1.0001810015
1.0000558303
1.0000156957
1.0000040055
1.0000009235
1.0000001913
1.0000000354
1.0000000058
1.0000000008
1.0000000001
1.0000000000
1.0000000000
1.4632330181
1.4561167805
1.4523608043
1.4453966298
1.4362112512
1.4260418681
1.4161642586
1.4076903253
1.4013832874
1.3975119518
1.3957824685
1.3954071226
1.3953297736
1.3945206576
1.3921944031
1.3878610615
1.3812278713
1.3720238043
1.3598156623
1.3438307192
1.3227432962
1.2943365898
1.2499858192
1.2275613503
1.2023751940
1.1873836842
1.1785593925
1.1727192650
1.1680751922
1.1637765568
1.1596027825
1.1556876797
1.1522842586
1.1495192656
1.1470909015
1.1439430716
1.1380985797
1.1270296247
1.1089532091
1.0847183809
1.0584907798
1.0355912872
1.0191936519
1.0092832580
1.0040723600
1.0016319040
1.0005990652
1.0002014112
1.0000618913
1.0000173256
1.0000044003
1.0000010091
1.0000002078
1.0000000381
1.0000000062
1.0000000009
1.0000000001
1.0000000000
1.0000000000
1.4615381249
1.4542273305
1.4504361472
1.4434158908
1.4341815642
1.4240088479
1.4142150736
1.4059440755
1.3999645694
1.3965097534
1.3952082721
1.3951757714
1.3952798602
1.3944669459
1.3919845131
1.3874128702
1.3805451868
1.3712046224
1.3590734589
1.3435501873
1.3235984887
1.2975094761
1.2604196166
1.2354241503
1.2117178515
1.1953839479
1.1846186121
1.1771334142
1.1712967751
1.1661941150
1.1614904754
1.1572284211
1.1536183950
1.1507967442
1.1485144339
1.1457832848
1.1406484393
1.1304632954
1.1131118743
1.0890059489
1.0621308262
1.0381170544
1.0206496207
1.0100005279
1.0043825806
1.0017518816
1.0006409424
1.0002146358
1.0000656632
1.0000182929
1.0000046219
1.0000010541
1.0000002158
1.0000000394
1.0000000064
1.0000000009
1.0000000001
1.0000000000
1.0000000000
1.4606621600
1.4532531713
1.4494460895
1.4424012762
1.4331480327
1.4229818998
1.4132417478
1.4050876560
1.3992899728
1.3960610344
1.3949865027
1.3951305778
1.3953229745
1.3945019060
1.3919363222
1.3872453420
1.3802657228
1.3708643813
1.3587727639
1.3434585198
1.3240022782
1.2989215735
1.2649575608
1.2391437216
1.2159663200
1.1990984200
1.1874902082
1.1792478980
1.1728417249
1.1673458390
1.1623795527
1.1579441500
1.1542294957
1.1513765272
1.1491632770
1.1466383843
1.1418639824
1.1321416474
1.1151914563
1.0911933146
1.0640172098
1.0394383145