<VTKFile type="UnstructuredGrid" version="0.1">
	<UnstructuredGrid>
		<Piece NumberOfPoints="13548" NumberOfCells="3387">
			<CellData>
				<DataArray type="Int32" Name="ghost" NumberOfComponents="1" Format="ascii">
1
1
1
1
1
1
1
1
1
1
1
1
1
1
1
1
1
1
1
1
1
1
1
1
1
1
1
1
1
1
1
1
1
1
1
1
1
1
1
1
1
1
1
1
1
1
1
1
1
1
1
1
1
1
1
1
1
1
0
0
0
0
0
0
0
0
0
0
0
0
0
0
0
0
0
0
0
0
1
1
0
0
0
0
0
0
0
0
0
0
0
0
0
0
0
0
0
0
0
0
0
0
0
0
0
0
0
0
0
0
0
0
0
1
1
0
0
0
0
0
0
0
0
0
0
0
0
0
0
0
0
0
0
0
0
1
1
0
0
0
0
0
0
0
0
0
0
0
0
0
0
0
0
0
0
0
0
0
0
0
0
0
0
0
0
0
0
0
0
0
1
1
0
0
0
0
0
0
0
0
0
0
0
0
0
0
0
0
0
0
0
0
1
1
0
0
0
0
0
0
0
0
0
0
0
0
0
0
0
0
0
0
0
0
0
0
0
0
0
0
0
0
0
0
0
0
0
1
1
0
0
0
0
0
0
0
0
0
0
0
0
0
0
0
0
0
0
0
0
1
1
0
0
0
0
0
0
0
0
0
0
0
0
0
0
0
0
0
0
0
0
0
0
0
0
0
0
0
0
0
0
0
0
0
1
1
0
0
0
0
0
0
0
0
0
0
0
0
0
0
0
0
0
0
0
0
1
1
0
0
0
0
0
0
0
0
0
0
0
0
0
0
0
0
0
0
0
0
0
0
0
0
0
0
0
0
0
0
0
0
0
1
1
0
0
0
0
0
0
0
0
0
0
0
0
0
0
0
0
0
0
0
0
1
1
0
0
0
0
0
0
0
0
0
0
0
0
0
0
0
0
0
0
0
0
0
0
0
0
0
0
0
0
0
0
0
0
0
1
1
0
0
0
0
0
0
0
0
0
0
0
0
0
0
0
0
0
0
0
0
1
1
0
0
0
0
0
0
0
0
0
0
0
0
0
0
0
0
0
0
0
0
0
0
0
0
0
0
0
0
0
0
0
0
0
1
1
0
0
0
0
0
0
0
0
0
0
0
0
0
0
0
0
0
0
0
0
1
1
0
0
0
0
0
0
0
0
0
0
0
0
0
0
0
0
0
0
0
0
0
0
0
0
0
0
0
0
0
0
0
0
0
1
1
0
0
0
0
0
0
0
0
0
0
0
0
0
0
0
0
0
0
0
0
1
1
0
0
0
0
0
0
0
0
0
0
0
0
0
0
0
0
0
0
0
0
0
0
0
0
0
0
0
0
0
0
0
0
0
1
1
0
0
0
0
0
0
0
0
0
0
0
0
0
0
0
0
0
0
0
0
1
1
0
0
0
0
0
0
0
0
0
0
0
0
0
0
0
0
0
0
0
0
0
0
0
0
0
0
0
0
0
0
0
0
0
1
1
0
0
0
0
0
0
0
0
0
0
0
0
0
0
0
0
0
0
0
0
1
1
0
0
0
0
0
0
0
0
0
0
0
0
0
0
0
0
0
0
0
0
0
0
0
0
0
0
0
0
0
0
0
0
0
1
1
0
0
0
0
0
0
0
0
0
0
0
0
0
0
0
0
0
0
0
0
1
1
0
0
0
0
0
0
0
0
0
0
0
0
0
0
0
0
0
0
0
0
0
0
0
0
0
0
0
0
0
0
0
0
0
1
1
0
0
0
0
0
0
0
0
0
0
0
0
0
0
0
0
0
0
0
0
1
1
0
0
0
0
0
0
0
0
0
0
0
0
0
0
0
0
0
0
0
0
0
0
0
0
0
0
0
0
0
0
0
0
0
1
1
0
0
0
0
0
0
0
0
0
0
0
0
0
0
0
0
0
0
0
0
1
1
0
0
0
0
0
0
0
0
0
0
0
0
0
0
0
0
0
0
0
0
0
0
0
0
0
0
0
0
0
0
0
0
0
1
1
0
0
0
0
0
0
0
0
0
0
0
0
0
0
0
0
0
0
0
0
1
1
0
0
0
0
0
0
0
0
0
0
0
0
0
0
0
0
0
0
0
0
0
0
0
0
0
0
0
0
0
0
0
0
0
1
1
0
0
0
0
0
0
0
0
0
0
0
0
0
0
0
0
0
0
0
0
1
1
0
0
0
0
0
0
0
0
0
0
0
0
0
0
0
0
0
0
0
0
0
0
0
0
0
0
0
0
0
0
0
0
0
1
1
0
0
0
0
0
0
0
0
0
0
0
0
0
0
0
0
0
0
0
0
1
1
0
0
0
0
0
0
0
0
0
0
0
0
0
0
0
0
0
0
0
0
0
0
0
0
0
0
0
0
0
0
0
0
0
1
1
0
0
0
0
0
0
0
0
0
0
0
0
0
0
0
0
0
0
0
0
1
1
0
0
0
0
0
0
0
0
0
0
0
0
0
0
0
0
0
0
0
0
0
0
0
0
0
0
0
0
0
0
0
0
0
1
1
0
0
0
0
0
0
0
0
0
0
0
0
0
0
0
0
0
0
0
0
1
1
0
0
0
0
0
0
0
0
0
0
0
0
0
0
0
0
0
0
0
0
0
0
0
0
0
0
0
0
0
0
0
0
0
1
1
0
0
0
0
0
0
0
0
0
0
0
0
0
0
0
0
0
0
0
0
1
1
0
0
0
0
0
0
0
0
0
0
0
0
0
0
0
0
0
0
0
0
0
0
0
0
0
0
0
0
0
0
0
0
0
1
1
0
0
0
0
0
0
0
0
0
0
0
0
0
0
0
0
0
0
0
0
1
1
0
0
0
0
0
0
0
0
0
0
0
0
0
0
0
0
0
0
0
0
0
0
0
0
0
0
0
0
0
0
0
0
0
1
1
0
0
0
0
0
0
0
0
0
0
0
0
0
0
0
0
0
0
0
0
1
1
0
0
0
0
0
0
0
0
0
0
0
0
0
0
0
0
0
0
0
0
0
0
0
0
0
0
0
0
0
0
0
0
0
1
1
0
0
0
0
0
0
0
0
0
0
0
0
0
0
0
0
0
0
0
0
1
1
0
0
0
0
0
0
0
0
0
0
0
0
0
0
0
0
0
0
0
0
0
0
0
0
0
0
0
0
0
0
0
0
0
1
1
0
0
0
0
0
0
0
0
0
0
0
0
0
0
0
0
0
0
0
0
1
1
0
0
0
0
0
0
0
0
0
0
0
0
0
0
0
0
0
0
0
0
0
0
0
0
0
0
0
0
0
0
0
0
0
1
1
0
0
0
0
0
0
0
0
0
0
0
0
0
0
0
0
0
0
0
0
0
1
1
0
0
0
0
0
0
0
0
0
0
0
0
0
0
0
0
0
0
0
0
0
0
0
0
0
0
0
0
0
0
0
0
0
0
1
1
0
0
0
0
0
0
0
0
0
0
0
0
0
0
0
0
0
0
0
0
0
0
0
0
0
0
0
0
0
0
0
0
0
0
0
0
0
0
0
0
0
0
0
0
0
0
0
0
0
0
0
0
0
0
0
0
0
1
1
0
0
0
0
0
0
0
0
0
0
0
0
0
0
0
0
0
0
0
0
0
0
0
0
0
0
0
0
0
0
0
0
0
0
0
0
0
0
0
0
0
0
0
0
0
0
0
0
0
0
0
0
0
0
0
0
0
1
1
0
0
0
0
0
0
0
0
0
0
0
0
0
0
0
0
0
0
0
0
0
0
0
0
0
0
0
0
0
0
0
0
0
0
0
0
0
0
0
0
0
0
0
0
0
0
0
0
0
0
0
0
0
0
0
0
0
1
1
0
0
0
0
0
0
0
0
0
0
0
0
0
0
0
0
0
0
0
0
0
0
0
0
0
0
0
0
0
0
0
0
0
0
0
0
0
0
0
0
0
0
0
0
0
0
0
0
0
0
0
0
0
0
0
0
0
1
1
0
0
0
0
0
0
0
0
0
0
0
0
0
0
0
0
0
0
0
0
0
0
0
0
0
0
0
0
0
0
0
0
0
0
0
0
0
0
0
0
0
0
0
0
0
0
0
0
0
0
0
0
0
0
0
0
0
1
1
0
0
0
0
0
0
0
0
0
0
0
0
0
0
0
0
0
0
0
0
0
0
0
0
0
0
0
0
0
0
0
0
0
0
0
0
0
0
0
0
0
0
0
0
0
0
0
0
0
0
0
0
0
0
0
0
0
1
1
0
0
0
0
0
0
0
0
0
0
0
0
0
0
0
0
0
0
0
0
0
0
0
0
0
0
0
0
0
0
0
0
0
0
0
0
0
0
0
0
0
0
0
0
0
0
0
0
0
0
0
0
0
0
0
0
0
1
1
0
0
0
0
0
0
0
0
0
0
0
0
0
0
0
0
0
0
0
0
0
0
0
0
0
0
0
0
0
0
0
0
0
0
0
0
0
0
0
0
0
0
0
0
0
0
0
0
0
0
0
0
0
0
0
0
0
1
1
0
0
0
0
0
0
0
0
0
0
0
0
0
0
0
0
0
0
0
0
0
0
0
0
0
0
0
0
0
0
0
0
0
0
0
0
0
0
0
0
0
0
0
0
0
0
0
0
0
0
0
0
0
0
0
0
0
1
1
0
0
0
0
0
0
0
0
0
0
0
0
0
0
0
0
0
0
0
0
0
0
0
0
0
0
0
0
0
0
0
0
0
0
0
0
0
0
0
0
0
0
0
0
0
0
0
0
0
0
0
0
0
0
0
0
0
1
1
0
0
0
0
0
0
0
0
0
0
0
0
0
0
0
0
0
0
0
0
0
1
1
0
0
0
0
0
0
0
0
0
0
0
0
0
0
0
0
0
0
0
0
0
0
0
0
0
0
0
0
0
0
0
0
0
0
1
1
0
0
0
0
0
0
0
0
0
0
0
0
0
0
0
0
0
0
0
0
1
1
0
0
0
0
0
0
0
0
0
0
0
0
0
0
0
0
0
0
0
0
0
0
0
0
0
0
0
0
0
0
0
0
0
1
1
0
0
0
0
0
0
0
0
0
0
0
0
0
0
0
0
0
0
0
0
1
1
0
0
0
0
0
0
0
0
0
0
0
0
0
0
0
0
0
0
0
0
0
0
0
0
0
0
0
0
0
0
0
0
0
1
1
0
0
0
0
0
0
0
0
0
0
0
0
0
0
0
0
0
0
0
0
1
1
0
0
0
0
0
0
0
0
0
0
0
0
0
0
0
0
0
0
0
0
0
0
0
0
0
0
0
0
0
0
0
0
0
1
1
0
0
0
0
0
0
0
0
0
0
0
0
0
0
0
0
0
0
0
0
1
1
0
0
0
0
0
0
0
0
0
0
0
0
0
0
0
0
0
0
0
0
0
0
0
0
0
0
0
0
0
0
0
0
0
1
1
0
0
0
0
0
0
0
0
0
0
0
0
0
0
0
0
0
0
0
0
1
1
0
0
0
0
0
0
0
0
0
0
0
0
0
0
0
0
0
0
0
0
0
0
0
0
0
0
0
0
0
0
0
0
0
1
1
0
0
0
0
0
0
0
0
0
0
0
0
0
0
0
0
0
0
0
0
1
1
0
0
0
0
0
0
0
0
0
0
0
0
0
0
0
0
0
0
0
0
0
0
0
0
0
0
0
0
0
0
0
0
0
1
1
0
0
0
0
0
0
0
0
0
0
0
0
0
0
0
0
0
0
0
0
1
1
0
0
0
0
0
0
0
0
0
0
0
0
0
0
0
0
0
0
0
0
0
0
0
0
0
0
0
0
0
0
0
0
0
1
1
0
0
0
0
0
0
0
0
0
0
0
0
0
0
0
0
0
0
0
0
1
1
0
0
0
0
0
0
0
0
0
0
0
0
0
0
0
0
0
0
0
0
0
0
0
0
0
0
0
0
0
0
0
0
0
1
1
0
0
0
0
0
0
0
0
0
0
0
0
0
0
0
0
0
0
0
0
1
1
0
0
0
0
0
0
0
0
0
0
0
0
0
0
0
0
0
0
0
0
0
0
0
0
0
0
0
0
0
0
0
0
0
1
1
0
0
0
0
0
0
0
0
0
0
0
0
0
0
0
0
0
0
0
0
1
1
0
0
0
0
0
0
0
0
0
0
0
0
0
0
0
0
0
0
0
0
0
0
0
0
0
0
0
0
0
0
0
0
0
1
1
0
0
0
0
0
0
0
0
0
0
0
0
0
0
0
0
0
0
0
0
1
1
0
0
0
0
0
0
0
0
0
0
0
0
0
0
0
0
0
0
0
0
0
0
0
0
0
0
0
0
0
0
0
0
0
1
1
0
0
0
0
0
0
0
0
0
0
0
0
0
0
0
0
0
0
0
0
1
1
0
0
0
0
0
0
0
0
0
0
0
0
0
0
0
0
0
0
0
0
0
0
0
0
0
0
0
0
0
0
0
0
0
1
1
0
0
0
0
0
0
0
0
0
0
0
0
0
0
0
0
0
0
0
0
1
1
0
0
0
0
0
0
0
0
0
0
0
0
0
0
0
0
0
0
0
0
0
0
0
0
0
0
0
0
0
0
0
0
0
1
1
0
0
0
0
0
0
0
0
0
0
0
0
0
0
0
0
0
0
0
0
1
1
0
0
0
0
0
0
0
0
0
0
0
0
0
0
0
0
0
0
0
0
0
0
0
0
0
0
0
0
0
0
0
0
0
1
1
0
0
0
0
0
0
0
0
0
0
0
0
0
0
0
0
0
0
0
0
1
1
0
0
0
0
0
0
0
0
0
0
0
0
0
0
0
0
0
0
0
0
0
0
0
0
0
0
0
0
0
0
0
0
0
1
1
0
0
0
0
0
0
0
0
0
0
0
0
0
0
0
0
0
0
0
0
1
1
0
0
0
0
0
0
0
0
0
0
0
0
0
0
0
0
0
0
0
0
0
0
0
0
0
0
0
0
0
0
0
0
0
1
1
0
0
0
0
0
0
0
0
0
0
0
0
0
0
0
0
0
0
0
0
1
1
0
0
0
0
0
0
0
0
0
0
0
0
0
0
0
0
0
0
0
0
0
0
0
0
0
0
0
0
0
0
0
0
0
1
1
0
0
0
0
0
0
0
0
0
0
0
0
0
0
0
0
0
0
0
0
1
1
0
0
0
0
0
0
0
0
0
0
0
0
0
0
0
0
0
0
0
0
0
0
0
0
0
0
0
0
0
0
0
0
0
1
1
0
0
0
0
0
0
0
0
0
0
0
0
0
0
0
0
0
0
0
0
1
1
0
0
0
0
0
0
0
0
0
0
0
0
0
0
0
0
0
0
0
0
0
0
0
0
0
0
0
0
0
0
0
0
0
1
1
0
0
0
0
0
0
0
0
0
0
0
0
0
0
0
0
0
0
0
0
1
1
0
0
0
0
0
0
0
0
0
0
0
0
0
0
0
0
0
0
0
0
0
0
0
0
0
0
0
0
0
0
0
0
0
1
1
0
0
0
0
0
0
0
0
0
0
0
0
0
0
0
0
0
0
0
0
1
1
0
0
0
0
0
0
0
0
0
0
0
0
0
0
0
0
0
0
0
0
0
0
0
0
0
0
0
0
0
0
0
0
0
1
1
1
1
1
1
1
1
1
1
1
1
1
1
1
1
1
1
1
1
1
1
1
1
1
1
1
1
1
1
1
1
1
1
1
1
1
1
1
1
1
1
1
1
1
1
1
1
1
1
1
1
1
1
1
1
1
1
				</DataArray>
				<DataArray type="Float64" Name="h" NumberOfComponents="1" Format="ascii">
1.5000000000
1.5000000000
1.5000000000
1.5000000000
1.5000000000
1.5000000000
1.5000000000
1.4999999993
1.4999999894
1.4999999226
1.4999996209
1.4999986092
1.4999959300
1.4999901088
1.4999794659
1.4999628112
1.4999402872
1.4999139318
1.4998875979
1.4998661333
1.4998540375
1.4998540375
1.0000001942
1.0000004473
1.0000003665
1.0000002472
1.0000001377
1.0000000634
1.0000000239
1.0000000073
1.0000000018
1.0000000003
1.0000000000
1.0000000000
1.0000000000
1.0000000000
1.0000000000
1.0000000000
1.0000000000
1.0000000000
1.0000000000
1.0000000000
1.0000000000
1.0000000000
1.0000000000
1.0000000000
1.0000000000
1.0000000000
1.0000000000
1.0000000000
1.0000000000
1.0000000000
1.0000000000
1.0000000000
1.0000000000
1.0000000000
1.0000000000
1.5000000000
1.5000000000
1.5000000000
1.5000000000
1.5000000000
1.5000000000
1.4999999994
1.4999999912
1.4999999327
1.4999996552
1.4999986762
1.4999959428
1.4999896659
1.4999774964
1.4999572002
1.4999277114
1.4998901312
1.4998481617
1.4998076791
1.4997754907
1.4997576191
1.4998540375
1.0000004473
1.0000009721
1.0000008140
1.0000005724
1.0000003389
1.0000001689
1.0000000705
1.0000000244
1.0000000069
1.0000000016
1.0000000003
1.0000000000
1.0000000000
1.0000000000
1.0000000000
1.0000000000
1.0000000000
1.0000000000
1.0000000000
1.0000000000
1.0000000000
1.0000000000
1.0000000000
1.0000000000
1.0000000000
1.0000000000
1.0000000000
1.0000000000
1.0000000000
1.0000000000
1.0000000000
1.0000000000
1.0000000000
1.0000000000
1.0000000000
1.5000000000
1.5000000000
1.5000000000
1.5000000000
1.5000000000
1.4999999992
1.4999999888
1.4999999148
1.4999995652
1.4999983281
1.4999948434
1.4999867241
1.4999706513
1.4999430903
1.4999015629
1.4998460464
1.4997798905
1.4997097994
1.4996448151
1.4995945471
1.4995670860
1.4997205139
1.0000015984
1.0000031855
1.0000027280
1.0000020040
1.0000012645
1.0000006846
1.0000003167
1.0000001243
1.0000000409
1.0000000111
1.0000000024
1.0000000004
1.0000000000
1.0000000000
1.0000000000
1.0000000000
1.0000000000
1.0000000000
1.0000000000
1.0000000000
1.0000000000
1.0000000000
1.0000000000
1.0000000000
1.0000000000
1.0000000000
1.0000000000
1.0000000000
1.0000000000
1.0000000000
1.0000000000
1.0000000000
1.0000000000
1.0000000000
1.0000000000
1.5000000000
1.5000000000
1.5000000000
1.5000000000
1.4999999991
1.4999999858
1.4999998889
1.4999994151
1.4999976830
1.4999926474
1.4999805509
1.4999558798
1.4999122871
1.4998445038
1.4997506227
1.4996338177
1.4995027517
1.4993705034
1.4992524264
1.4991635009
1.4991156914
1.4993914305
1.0000060917
1.0000113087
1.0000098547
1.0000074897
1.0000049654
1.0000028669
1.0000014361
1.0000006200
1.0000002285
1.0000000710
1.0000000182
1.0000000038
1.0000000006
1.0000000001
1.0000000000
1.0000000000
1.0000000000
1.0000000000
1.0000000000
1.0000000000
1.0000000000
1.0000000000
1.0000000000
1.0000000000
1.0000000000
1.0000000000
1.0000000000
1.0000000000
1.0000000000
1.0000000000
1.0000000000
1.0000000000
1.0000000000
1.0000000000
1.0000000000
1.5000000000
1.5000000000
1.5000000000
1.4999999989
1.4999999831
1.4999998632
1.4999992583
1.4999969723
1.4999901040
1.4999730514
1.4999371127
1.4998714978
1.4997660340
1.4996148483
1.4994195250
1.4991904188
1.4989456423
1.4987082425
1.4985026363
1.4983510875
1.4982706451
1.4987447049
1.0000211291
1.0000368040
1.0000325546
1.0000254749
1.0000176257
1.0000107605
1.0000057744
1.0000027081
1.0000011012
1.0000003841
1.0000001134
1.0000000278
1.0000000055
1.0000000008
1.0000000001
1.0000000000
1.0000000000
1.0000000000
1.0000000000
1.0000000000
1.0000000000
1.0000000000
1.0000000000
1.0000000000
1.0000000000
1.0000000000
1.0000000000
1.0000000000
1.0000000000
1.0000000000
1.0000000000
1.0000000000
1.0000000000
1.0000000000
1.0000000000
1.5000000000
1.5000000000
1.4999999988
1.4999999808
1.4999998409
1.4999991119
1.4999962684
1.4999874497
1.4999648550
1.4999157275
1.4998232311
1.4996699506
1.4994433375
1.4991410325
1.4987737434
1.4983646468
1.4979458107
1.4975531869
1.4972218206
1.4969819411
1.4968559538
1.4976080968
1.0000664699
1.0001091585
1.0000978518
1.0000785993
1.0000565032
1.0000362608
1.0000206924
1.0000104439
1.0000046298
1.0000017869
1.0000005937
1.0000001673
1.0000000392
1.0000000075
1.0000000011
1.0000000001
1.0000000000
1.0000000000
1.0000000000
1.0000000000
1.0000000000
1.0000000000
1.0000000000
1.0000000000
1.0000000000
1.0000000000
1.0000000000
1.0000000000
1.0000000000
1.0000000000
1.0000000000
1.0000000000
1.0000000000
1.0000000000
1.0000000000
1.5000000000
1.4999999988
1.4999999795
1.4999998249
1.4999989944
1.4999956532
1.4999849662
1.4999567346
1.4998934816
1.4997708441
1.4995617384
1.4992438442
1.4988077848
1.4982625051
1.4976355771
1.4969688660
1.4963116541
1.4957137474
1.4952203361
1.4948686243
1.4946855430
1.4957837614
1.0001903249
1.0002959003
1.0002684788
1.0002208309
1.0001643585
1.0001103558
1.0000665687
1.0000358881
1.0000171823
1.0000072502
1.0000026711
1.0000008492
1.0000002296
1.0000000517
1.0000000095
1.0000000013
1.0000000001
1.0000000000
1.0000000000
1.0000000000
1.0000000000
1.0000000000
1.0000000000
1.0000000000
1.0000000000
1.0000000000
1.0000000000
1.0000000000
1.0000000000
1.0000000000
1.0000000000
1.0000000000
1.0000000000
1.0000000000
1.0000000000
1.4999999982
1.4999999780
1.4999998176
1.4999989221
1.4999952082
1.4999829611
1.4999496154
1.4998726624
1.4997191255
1.4994500063
1.4990299351
1.4984388803
1.4976810261
1.4967869869
1.4958088001
1.4948107029
1.4938593466
1.4930162966
1.4923339772
1.4918539388
1.4916058994
1.4930878893
1.0004976197
1.0007351292
1.0006744545
1.0005669705
1.0004356391
1.0003048657
1.0001934472
1.0001107167
1.0000568147
1.0000259619
1.0000104797
1.0000037008
1.0000011299
1.0000002938
1.0000000638
1.0000000113
1.0000000016
1.0000000002
1.0000000000
1.0000000000
1.0000000000
1.0000000000
1.0000000000
1.0000000000
1.0000000000
1.0000000000
1.0000000000
1.0000000000
1.0000000000
1.0000000000
1.0000000000
1.0000000000
1.0000000000
1.0000000000
1.0000000000
1.4999999682
1.4999998000
1.4999989046
1.4999949966
1.4999817064
1.4999444093
1.4998557422
1.4996736786
1.4993456712
1.4988201661
1.4980624318
1.4970680503
1.4958682103
1.4945249120
1.4931188804
1.4917359481
1.4904561413
1.4893475715
1.4884650246
1.4878507680
1.4875352219
1.4893949730
1.0011912623
1.0016776125
1.0015551665
1.0013341085
1.0010558857
1.0007678200
1.0005104884
1.0003086343
1.0001686956
1.0000828374
1.0000362855
1.0000140622
1.0000047749
1.0000014037
1.0000003519
1.0000000737
1.0000000126
1.0000000017
1.0000000002
1.0000000000
1.0000000000
1.0000000000
1.0000000000
1.0000000000
1.0000000000
1.0000000000
1.0000000000
1.0000000000
1.0000000000
1.0000000000
1.0000000000
1.0000000000
1.0000000000
1.0000000000
1.0000000000
1.4999997204
1.4999987793
1.4999950320
1.4999813822
1.4999418327
1.4998449264
1.4996400136
1.4992603322
1.4986357146
1.4977125085
1.4964729561
1.4949450756
1.4931992236
1.4913337484
1.4894563206
1.4876683104
1.4860554371
1.4846851092
1.4836088236
1.4828659434
1.4824858964
1.4846714706
1.0026162649
1.0035219054
1.0032970601
1.0028832237
1.0023466540
1.0017691508
1.0012287125
1.0007816380
1.0004527845
1.0002374193
1.0001119708
1.0000471585
1.0000175922
1.0000057561
1.0000016322
1.0000003951
1.0000000800
1.0000000132
1.0000000017
1.0000000002
1.0000000000
1.0000000000
1.0000000000
1.0000000000
1.0000000000
1.0000000000
1.0000000000
1.0000000000
1.0000000000
1.0000000000
1.0000000000
1.0000000000
1.0000000000
1.0000000000
1.0000000000
1.4999983519
1.4999944031
1.4999818924
1.4999422455
1.4998417096
1.4996225366
1.4992043703
1.4984971518
1.4974245816
1.4959499175
1.4940926106
1.4919279845
1.4895715364
1.4871554146
1.4848061168
1.4826303808
1.4807100492
1.4791042832
1.4778562339
1.4769997134
1.4765624943
1.4789859660
1.0052767304
1.0068055530
1.0064317939
1.0057295669
1.0047904236
1.0037385582
1.0027066453
1.0018064349
1.0011046894
1.0006154048
1.0003104847
1.0001409793
1.0000572092
1.0000205787
1.0000064979
1.0000017797
1.0000004165
1.0000000816
1.0000000130
1.0000000016
1.0000000002
1.0000000000
1.0000000000
1.0000000000
1.0000000000
1.0000000000
1.0000000000
1.0000000000
1.0000000000
1.0000000000
1.0000000000
1.0000000000
1.0000000000
1.0000000000
1.0000000000
1.4999926995
1.4999794696
1.4999448128
1.4998464370
1.4996236132
1.4991849817
1.4984209860
1.4972299890
1.4955504941
1.4933859595
1.4908107671
1.4879549142
1.4849760671
1.4820302657
1.4792503173
1.4767365780
1.4745577939
1.4727586501
1.4713704880
1.4704204797
1.4699354957
1.4724908781
1.0097751922
1.0121024601
1.0115447180
1.0104723500
1.0089892797
1.0072562712
1.0054696425
1.0038228614
1.0024612191
1.0014510759
1.0007791574
1.0003789223
1.0001659072
1.0000649507
1.0000225525
1.0000068787
1.0000018212
1.0000004123
1.0000000783
1.0000000121
1.0000000015
1.0000000001
1.0000000000
1.0000000000
1.0000000000
1.0000000000
1.0000000000
1.0000000000
1.0000000000
1.0000000000
1.0000000000
1.0000000000
1.0000000000
1.0000000000
1.0000000000
1.4999741194
1.4999372832
1.4998553656
1.4996425126
1.4992046902
1.4984167891
1.4971511902
1.4953164464
1.4928914826
1.4899404449
1.4866018848
1.4830577231
1.4794966589
1.4760841343
1.4729455495
1.4701641721
1.4677884938
1.4658446967
1.4643507729
1.4633278039
1.4628040335
1.4653861632
1.0166265158
1.0197994920
1.0190610350
1.0176018097
1.0155066237
1.0129422715
1.0101526337
1.0074250047
1.0050250473
1.0031273652
1.0017802976
1.0009224524
1.0004328507
1.0001828908
1.0000691189
1.0000231802
1.0000068326
1.0000017493
1.0000003833
1.0000000705
1.0000000106
1.0000000012
1.0000000001
1.0000000000
1.0000000000
1.0000000000
1.0000000000
1.0000000000
1.0000000000
1.0000000000
1.0000000000
1.0000000000
1.0000000000
1.0000000000
1.0000000000
1.4999235508
1.4998358413
1.4996670315
1.4992586450
1.4984849368
1.4971980302
1.4952739753
1.4926585096
1.4893939217
1.4856165786
1.4815275451
1.4773491743
1.4732853914
1.4694957271
1.4660861425
1.4631148510
1.4606056753
1.4585644752
1.4569959528
1.4559169448
1.4553608040
1.4578789641
1.0259677890
1.0298185863
1.0289641233
1.0272153416
1.0245934294
1.0212155345
1.0173175952
1.0132514980
1.0094234306
1.0061829781
1.0037222479
1.0020467891
1.0010237322
1.0004636097
1.0001890682
1.0000689891
1.0000223482
1.0000063661
1.0000015762
1.0000003342
1.0000000595
1.0000000087
1.0000000010
1.0000000001
1.0000000000
1.0000000000
1.0000000000
1.0000000000
1.0000000000
1.0000000000
1.0000000000
1.0000000000
1.0000000000
1.0000000000
1.0000000000
1.4998063345
1.4996237141
1.4993149560
1.4986098877
1.4973639761
1.4954289989
1.4927127033
1.4892231511
1.4850802124
1.4804928678
1.4757139901
1.4709901858
1.4665243075
1.4624568796
1.4588656879
1.4557790922
1.4531942433
1.4510963668
1.4494777557
1.4483535598
1.4477673804
1.4501502660
1.0373241421
1.0414758615
1.0406303182
1.0388079710
1.0359281441
1.0319995693
1.0271641172
1.0217486209
1.0162548085
1.0112426122
1.0071495959
1.0041616226
1.0022095720
1.0010663962
1.0004659129
1.0001833397
1.0000645696
1.0000201964
1.0000055583
1.0000013304
1.0000002729
1.0000000470
1.0000000066
1.0000000007
1.0000000001
1.0000000000
1.0000000000
1.0000000000
1.0000000000
1.0000000000
1.0000000000
1.0000000000
1.0000000000
1.0000000000
1.0000000000
1.4995698429
1.4992311465
1.4987219701
1.4976118326
1.4957610844
1.4930511122
1.4894493034
1.4850437189
1.4800353606
1.4746971915
1.4693185276
1.4641538055
1.4593911366
1.4551426579
1.4514527057
1.4483174961
1.4457068786
1.4435855289
1.4419340517
1.4407685363
1.4401495099
1.4423415124
1.0496536572
1.0536520026
1.0529691177
1.0513471895
1.0485916798
1.0445779363
1.0392808514
1.0328755809
1.0258245331
1.0188362947
1.0126536851
1.0077876707
1.0043771921
1.0022414806
1.0010428700
1.0004392272
1.0001666420
1.0000566018
1.0000170827
1.0000045387
1.0000010494
1.0000002081
1.0000000347
1.0000000047
1.0000000005
1.0000000000
1.0000000000
1.0000000000
1.0000000000
1.0000000000
1.0000000000
1.0000000000
1.0000000000
1.0000000000
1.0000000000
1.4991470615
1.4985784369
1.4978103636
1.4961960914
1.4936305094
1.4900557664
1.4855214325
1.4802040016
1.4743807085
1.4683753755
1.4624983243
1.4569983266
1.4520391160
1.4476987303
1.4439852989
1.4408617598
1.4382700099
1.4361534369
1.4344805578
1.4332705246
1.4326094790
1.4345613967
1.0617248862
1.0652139257
1.0648383819
1.0636604791
1.0613871658
1.0577894567
1.0526666208
1.0459504516
1.0378848602
1.0291384058
1.0206860096
1.0134597165
1.0079974286
1.0043317769
1.0021358653
1.0009566479
1.0003879037
1.0001417196
1.0000463724
1.0000134886
1.0000034559
1.0000007711
1.0000001477
1.0000000238
1.0000000031
1.0000000003
1.0000000000
1.0000000000
1.0000000000
1.0000000000
1.0000000000
1.0000000000
1.0000000000
1.0000000000
1.0000000000
1.4984668489
1.4975900413
1.4965158083
1.4943217755
1.4909663041
1.4864787760
1.4810057760
1.4748132880
1.4682458504
1.4616651624
1.4553902768
1.4496551133
1.4445932504
1.4402454172
1.4365816583
1.4335299740
1.4310022110
1.4289178765
1.4272311637
1.4259654874
1.4252442064
1.4269035178
1.0725759079
1.0753902122
1.0754464008
1.0748768466
1.0733146254
1.0704929456
1.0661000792
1.0598301102
1.0515906308
1.0417678255
1.0313275985
1.0215554557
1.0135335026
1.0077388396
1.0040290993
1.0019088921
1.0008215543
1.0003201625
1.0001124579
1.0000353916
1.0000099060
1.0000024438
1.0000005254
1.0000000970
1.0000000151
1.0000000019
1.0000000002
1.0000000000
1.0000000000
1.0000000000
1.0000000000
1.0000000000
1.0000000000
1.0000000000
1.0000000000
1.4974681955
1.4962098840
1.4947990655
1.4919800881
1.4877974267
1.4823861716
1.4759976750
1.4689847121
1.4617505198
1.4546850717
1.4481084786
1.4422347452
1.4371640959
1.4328973894
1.4293636248
1.4264519982
1.4240396420
1.4220172021
1.4203202014
1.4189762238
1.4181614617
1.4194681167
1.0817179342
1.0838494435
1.0844669659
1.0846085844
1.0838517865
1.0819614929
1.0786126676
1.0733564564
1.0657786888
1.0558274603
1.0441489948
1.0321075968
1.0212977509
1.0128441490
1.0070425919
1.0035141019
1.0015957403
1.0006584158
1.0002460778
1.0000829240
1.0000250470
1.0000067323
1.0000015959
1.0000003300
1.0000000587
1.0000000088
1.0000000011
1.0000000001
1.0000000000
1.0000000000
1.0000000000
1.0000000000
1.0000000000
1.0000000000
1.0000000000
1.4961135423
1.4944126750
1.4926522652
1.4891924026
1.4841775606
1.4778587490
1.4705950599
1.4628230745
1.4549993559
1.4475373594
1.4407550706
1.4348443795
1.4298695803
1.4257875520
1.4224802177
1.4197905559
1.4175533161
1.4156232300
1.4139109901
1.4124461956
1.4114777817
1.4123705921
1.0890098085
1.0905129789
1.0918768042
1.0928292245
1.0929086116
1.0919617434
1.0897335180
1.0857546077
1.0794097154
1.0702184287
1.0582962243
1.0447136783
1.0313106740
1.0198994543
1.0114699281
1.0060067819
1.0028631895
1.0012425303
1.0004901786
1.0001752234
1.0000564960
1.0000163347
1.0000042049
1.0000009552
1.0000001894
1.0000000323
1.0000000047
1.0000000006
1.0000000001
1.0000000000
1.0000000000
1.0000000000
1.0000000000
1.0000000000
1.0000000000
1.4943966733
1.4922080671
1.4900989615
1.4860044648
1.4801749154
1.4729811305
1.4648907454
1.4564230988
1.4480870456
1.4403193741
1.4334360583
1.4276056272
1.4228522110
1.4190808193
1.4161155655
1.4137417086
1.4117416454
1.4099265205
1.4081750413
1.4065124543
1.4052814085
1.4057170409
1.0943632377
1.0952758318
1.0976991207
1.0996312993
1.1006099015
1.1005891734
1.0994321869
1.0967488289
1.0918730466
1.0840322429
1.0727888738
1.0586343420
1.0432479893
1.0289303160
1.0175014452
1.0095919714
1.0047778853
1.0021677337
1.0008960464
1.0003368582
1.0001147881
1.0000352932
1.0000097344
1.0000023915
1.0000005188
1.0000000983
1.0000000160
1.0000000022
1.0000000003
1.0000000000
1.0000000000
1.0000000000
1.0000000000
1.0000000000
1.0000000000
1.4923441428
1.4896386481
1.4871904897
1.4824810939
1.4758671544
1.4678396066
1.4589752044
1.4498776334
1.4411108733
1.4331382410
1.4262752592
1.4206646203
1.4162821612
1.4129676041
1.4104712419
1.4085060662
1.4067922318
1.4050916106
1.4032434867
1.4012525151
1.3995632604
1.3995444370
1.0973829281
1.0976901885
1.1017631511
1.1050330882
1.1071222795
1.1080922481
1.1079485466
1.1064536299
1.1030236976
1.0967724793
1.0868369651
1.0730354643
1.0565213136
1.0397036451
1.0251610216
1.0143934786
1.0074621521
1.0035200666
1.0015141328
1.0005937932
1.0002118652
1.0000685376
1.0000200085
1.0000052411
1.0000012233
1.0000002523
1.0000000455
1.0000000071
1.0000000009
1.0000000001
1.0000000000
1.0000000000
1.0000000000
1.0000000000
1.0000000000
1.4900117669
1.4867745560
1.4840013332
1.4787034786
1.4713420297
1.4625270209
1.4529454478
1.4432888915
1.4341815426
1.4261177121
1.4194132393
1.4141790810
1.4103291052
1.4076185671
1.4057046985
1.4042149692
1.4028028120
1.4011811157
1.3991415430
1.3966286411
1.3941399651
1.3937424196
1.0967759260
1.0964041600
1.1034644981
1.1089387838
1.1126851869
1.1148813267
1.1157377527
1.1152632680
1.1130804584
1.1083599888
1.1000019333
1.0872242896
1.0704484864
1.0517789113
1.0342835117
1.0204128626
1.0109722242
1.0053533670
1.0023805745
1.0009663604
1.0003578273
1.0001205686
1.0000368305
1.0000101519
1.0000025108
1.0000005533
1.0000001078
1.0000000184
1.0000000027
1.0000000003
1.0000000000
1.0000000000
1.0000000000
1.0000000000
1.0000000000
1.4874792172
1.4837080948
1.4806259975
1.4747699890
1.4667027441
1.4571519633
1.4469160022
1.4367780251
1.4274271759
1.4193915388
1.4129841814
1.4082723299
1.4050874723
1.4030774460
1.4017905580
1.4007682152
1.3996129151
1.3980104489
1.3957066298
1.3925063471
1.3887168978
1.3881002241
1.0886925473
1.0875024209
1.1015989757
1.1115313162
1.1180442493
1.1218276620
1.1236085513
1.1238485957
1.1225254963
1.1190168648
1.1121667801
1.1007450933
1.0843982289
1.0646000657
1.0445325993
1.0275086109
1.0152701503
1.0076665925
1.0035021961
1.0014605814
1.0005564672
1.0001934079
1.0000611466
1.0000175160
1.0000045250
1.0000010482
1.0000002162
1.0000000394
1.0000000063
1.0000000009
1.0000000001
1.0000000000
1.0000000000
1.0000000000
1.0000000000
1.4848461449
1.4805514062
1.4771794149
1.4708010058
1.4620773508
1.4518514588
1.4410326065
1.4304968116
1.4209991117
1.4130979964
1.4070912360
1.4029777143
1.4004727489
1.3990845443
1.3982373466
1.3974031840
1.3961950883
1.3943954266
1.3919153795
1.3886901959
1.3846498483
1.3840391652
1.0605422516
1.0582420675
1.0953677685
1.1151551630
1.1257309620
1.1309025680
1.1329369338
1.1331243671
1.1319355815
1.1290378329
1.1233303725
1.1132755402
1.0977963746
1.0775381279
1.0554173443
1.0353834129
1.0202014680
1.0103842641
1.0048430301
1.0020600767
1.0008009103
1.0002844722
1.0000921076
1.0000270958
1.0000072124
1.0000017285
1.0000003708
1.0000000707
1.0000000119
1.0000000017
1.0000000002
1.0000000000
1.0000000000
1.0000000000
1.0000000000
1.4822296867
1.4774358205
1.4737982889
1.4669434514
1.4576266750
1.4468020383
1.4354866223
1.4246468512
1.4150990925
1.4074200941
1.4018656301
1.3983195927
1.3963134255
1.3951271049
1.3939393435
1.3919542532
1.3884216299
1.3824866573
1.3727935972
1.3566222878
1.3278583734
1.2724722086
1.2033828222
1.2045957702
1.1360250697
1.1367888562
1.1435475546
1.1470152088
1.1481123161
1.1475021881
1.1458933306
1.1438200593
1.1414323597
1.1382895843
1.1332019269
1.1243447480
1.1099813971
1.0898443621
1.0662767057
1.0435677939
1.0254783865
1.0133440911
1.0063169024
1.0027220845
1.0010715949
1.0003855884
1.0001266113
1.0000378259
1.0000102430
1.0000025026
1.0000005487
1.0000001073
1.0000000186
1.0000000028
1.0000000004
1.0000000000
1.0000000000
1.0000000000
1.0000000000
1.4797599328
1.4745082955
1.4706375392
1.4633669956
1.4535399438
1.4422151104
1.4305125537
1.4194861602
1.4100108451
1.4026754847
1.3976815660
1.3947825691
1.3933212564
1.3923792313
1.3909838398
1.3882694872
1.3835060092
1.3759658433
1.3646429104
1.3477967015
1.3221803019
1.2820198876
1.2008979063
1.2022522813
1.1651335101
1.1585201545
1.1586410212
1.1587887959
1.1578654343
1.1558791033
1.1532677330
1.1505000640
1.1477939743
1.1448439201
1.1405644936
1.1330478431
1.1201060700
1.1006546129
1.0763173634
1.0514515964
1.0306997535
1.0163104940
1.0077969554
1.0033836167
1.0013397551
1.0004847133
1.0001600486
1.0000480980
1.0000131067
1.0000032237
1.0000007118
1.0000001402
1.0000000244
1.0000000037
1.0000000005
1.0000000001
1.0000000000
1.0000000000
1.0000000000
1.4775704201
1.4719213536
1.4678574942
1.4602455216
1.4500068400
1.4382943241
1.4263222646
1.4152258912
1.4059341863
1.3990430300
1.3946927631
1.3925021020
1.3916345336
1.3910091057
1.3895682279
1.3864659699
1.3810906089
1.3729288237
1.3613374551
1.3452618578
1.3228697563
1.2910661433
1.2346156026
1.2191452265
1.1901774365
1.1776241018
1.1718336894
1.1681772768
1.1649200888
1.1615160598
1.1580332251
1.1547591705
1.1518863664
1.1491874311
1.1456772272
1.1394355728
1.1279699786
1.1095173560
1.0849545032
1.0584916731
1.0354699415
1.0190415271
1.0091531099
1.0039816807
1.0015776246
1.0005706693
1.0001883127
1.0000565386
1.0000153869
1.0000037780
1.0000008322
1.0000001634
1.0000000284
1.0000000043
1.0000000006
1.0000000001
1.0000000000
1.0000000000
1.0000000000
1.4757890788
1.4698219412
1.4656106710
1.4577401875
1.4471957665
1.4352082721
1.4230713272
1.4119894446
1.4029367311
1.3965101576
1.3927873886
1.3912596462
1.3909329636
1.3906008925
1.3891636790
1.3858269205
1.3801016481
1.3716472819
1.3600556071
1.3446325148
1.3241558751
1.2964915139
1.2532522350
1.2310834869
1.2058093013
1.1904743208
1.1811915683
1.1748817794
1.1698442620
1.1653109943
1.1611289453
1.1574533532
1.1544482186
1.1519417389
1.1490374715
1.1438392535
1.1336657890
1.1162423538
1.0917826061
1.0642356118
1.0394334370
1.0213188648
1.0102735147
1.0044664420
1.0017654474
1.0006364245
1.0002091586
1.0000625109
1.0000169262
1.0000041325
1.0000009046
1.0000001764
1.0000000304
1.0000000046
1.0000000006
1.0000000001
1.0000000000
1.0000000000
1.0000000000
1.4745287175
1.4683394161
1.4640292975
1.4559866802
1.4452421520
1.4330825546
1.4208591793
1.4098271866
1.4009926579
1.3949493844
1.3917214200
1.3906980303
1.3907669787
1.3906375077
1.3891946486
1.3856964053
1.3797477870
1.3711209535
1.3595388747
1.3444839850
1.3250126077
1.2994738858
1.2631408049
1.2384272921
1.2146834305
1.1980764240
1.1869275584
1.1790482031
1.1728916407
1.1676223246
1.1629755119
1.1590289480
1.1559294549
1.1535450560
1.1510478759
1.1465764433
1.1373469282
1.1207486319
1.0965051417
1.0683060253
1.0422805151
1.0229566893
1.0110709831
1.0048046864
1.0018929333
1.0006795475
1.0002222793
1.0000660925
1.0000177984
1.0000043205
1.0000009401
1.0000001821
1.0000000312
1.0000000047
1.0000000006
1.0000000001
1.0000000000
1.0000000000
1.0000000000
1.4738751985
1.4675716885
1.4632121541
1.4550838942
1.4442410055
1.4319996043
1.4197413831
1.4087482452
1.4000426780
1.3942151272
1.3912582682
1.3905042711
1.3907774438
1.3907453038
1.3892901345
1.3857020563
1.3796363716
1.3709201228
1.3593342351
1.3444336551
1.3253877056
1.3007635194
1.2673994286
1.2418645233
1.2186737198
1.2015696224
1.1896174994
1.1810213392
1.1743345822
1.1687083430
1.1638329744
1.1597514406
1.1566029954
1.1542767547
1.1519823334
1.1478817468
1.1391478911
1.1230051750
1.0989183023
1.0704185179
1.0437708140
1.0238142038