<VTKFile type="UnstructuredGrid" version="0.1">
	<UnstructuredGrid>
		<Piece NumberOfPoints="13548" NumberOfCells="3387">
			<CellData>
				<DataArray type="Int32" Name="ghost" NumberOfComponents="1" Format="ascii">
1
1
1
1
1
1
1
1
1
1
1
1
1
1
1
1
1
1
1
1
1
1
1
1
1
1
1
1
1
1
1
1
1
1
1
1
1
1
1
1
1
1
1
1
1
1
1
1
1
1
1
1
1
1
1
1
1
1
0
0
0
0
0
0
0
0
0
0
0
0
0
0
0
0
0
0
0
0
1
1
0
0
0
0
0
0
0
0
0
0
0
0
0
0
0
0
0
0
0
0
0
0
0
0
0
0
0
0
0
0
0
0
0
1
1
0
0
0
0
0
0
0
0
0
0
0
0
0
0
0
0
0
0
0
0
1
1
0
0
0
0
0
0
0
0
0
0
0
0
0
0
0
0
0
0
0
0
0
0
0
0
0
0
0
0
0
0
0
0
0
1
1
0
0
0
0
0
0
0
0
0
0
0
0
0
0
0
0
0
0
0
0
1
1
0
0
0
0
0
0
0
0
0
0
0
0
0
0
0
0
0
0
0
0
0
0
0
0
0
0
0
0
0
0
0
0
0
1
1
0
0
0
0
0
0
0
0
0
0
0
0
0
0
0
0
0
0
0
0
1
1
0
0
0
0
0
0
0
0
0
0
0
0
0
0
0
0
0
0
0
0
0
0
0
0
0
0
0
0
0
0
0
0
0
1
1
0
0
0
0
0
0
0
0
0
0
0
0
0
0
0
0
0
0
0
0
1
1
0
0
0
0
0
0
0
0
0
0
0
0
0
0
0
0
0
0
0
0
0
0
0
0
0
0
0
0
0
0
0
0
0
1
1
0
0
0
0
0
0
0
0
0
0
0
0
0
0
0
0
0
0
0
0
1
1
0
0
0
0
0
0
0
0
0
0
0
0
0
0
0
0
0
0
0
0
0
0
0
0
0
0
0
0
0
0
0
0
0
1
1
0
0
0
0
0
0
0
0
0
0
0
0
0
0
0
0
0
0
0
0
1
1
0
0
0
0
0
0
0
0
0
0
0
0
0
0
0
0
0
0
0
0
0
0
0
0
0
0
0
0
0
0
0
0
0
1
1
0
0
0
0
0
0
0
0
0
0
0
0
0
0
0
0
0
0
0
0
1
1
0
0
0
0
0
0
0
0
0
0
0
0
0
0
0
0
0
0
0
0
0
0
0
0
0
0
0
0
0
0
0
0
0
1
1
0
0
0
0
0
0
0
0
0
0
0
0
0
0
0
0
0
0
0
0
1
1
0
0
0
0
0
0
0
0
0
0
0
0
0
0
0
0
0
0
0
0
0
0
0
0
0
0
0
0
0
0
0
0
0
1
1
0
0
0
0
0
0
0
0
0
0
0
0
0
0
0
0
0
0
0
0
1
1
0
0
0
0
0
0
0
0
0
0
0
0
0
0
0
0
0
0
0
0
0
0
0
0
0
0
0
0
0
0
0
0
0
1
1
0
0
0
0
0
0
0
0
0
0
0
0
0
0
0
0
0
0
0
0
1
1
0
0
0
0
0
0
0
0
0
0
0
0
0
0
0
0
0
0
0
0
0
0
0
0
0
0
0
0
0
0
0
0
0
1
1
0
0
0
0
0
0
0
0
0
0
0
0
0
0
0
0
0
0
0
0
1
1
0
0
0
0
0
0
0
0
0
0
0
0
0
0
0
0
0
0
0
0
0
0
0
0
0
0
0
0
0
0
0
0
0
1
1
0
0
0
0
0
0
0
0
0
0
0
0
0
0
0
0
0
0
0
0
1
1
0
0
0
0
0
0
0
0
0
0
0
0
0
0
0
0
0
0
0
0
0
0
0
0
0
0
0
0
0
0
0
0
0
1
1
0
0
0
0
0
0
0
0
0
0
0
0
0
0
0
0
0
0
0
0
1
1
0
0
0
0
0
0
0
0
0
0
0
0
0
0
0
0
0
0
0
0
0
0
0
0
0
0
0
0
0
0
0
0
0
1
1
0
0
0
0
0
0
0
0
0
0
0
0
0
0
0
0
0
0
0
0
1
1
0
0
0
0
0
0
0
0
0
0
0
0
0
0
0
0
0
0
0
0
0
0
0
0
0
0
0
0
0
0
0
0
0
1
1
0
0
0
0
0
0
0
0
0
0
0
0
0
0
0
0
0
0
0
0
1
1
0
0
0
0
0
0
0
0
0
0
0
0
0
0
0
0
0
0
0
0
0
0
0
0
0
0
0
0
0
0
0
0
0
1
1
0
0
0
0
0
0
0
0
0
0
0
0
0
0
0
0
0
0
0
0
1
1
0
0
0
0
0
0
0
0
0
0
0
0
0
0
0
0
0
0
0
0
0
0
0
0
0
0
0
0
0
0
0
0
0
1
1
0
0
0
0
0
0
0
0
0
0
0
0
0
0
0
0
0
0
0
0
1
1
0
0
0
0
0
0
0
0
0
0
0
0
0
0
0
0
0
0
0
0
0
0
0
0
0
0
0
0
0
0
0
0
0
1
1
0
0
0
0
0
0
0
0
0
0
0
0
0
0
0
0
0
0
0
0
1
1
0
0
0
0
0
0
0
0
0
0
0
0
0
0
0
0
0
0
0
0
0
0
0
0
0
0
0
0
0
0
0
0
0
1
1
0
0
0
0
0
0
0
0
0
0
0
0
0
0
0
0
0
0
0
0
1
1
0
0
0
0
0
0
0
0
0
0
0
0
0
0
0
0
0
0
0
0
0
0
0
0
0
0
0
0
0
0
0
0
0
1
1
0
0
0
0
0
0
0
0
0
0
0
0
0
0
0
0
0
0
0
0
1
1
0
0
0
0
0
0
0
0
0
0
0
0
0
0
0
0
0
0
0
0
0
0
0
0
0
0
0
0
0
0
0
0
0
1
1
0
0
0
0
0
0
0
0
0
0
0
0
0
0
0
0
0
0
0
0
1
1
0
0
0
0
0
0
0
0
0
0
0
0
0
0
0
0
0
0
0
0
0
0
0
0
0
0
0
0
0
0
0
0
0
1
1
0
0
0
0
0
0
0
0
0
0
0
0
0
0
0
0
0
0
0
0
1
1
0
0
0
0
0
0
0
0
0
0
0
0
0
0
0
0
0
0
0
0
0
0
0
0
0
0
0
0
0
0
0
0
0
1
1
0
0
0
0
0
0
0
0
0
0
0
0
0
0
0
0
0
0
0
0
1
1
0
0
0
0
0
0
0
0
0
0
0
0
0
0
0
0
0
0
0
0
0
0
0
0
0
0
0
0
0
0
0
0
0
1
1
0
0
0
0
0
0
0
0
0
0
0
0
0
0
0
0
0
0
0
0
0
1
1
0
0
0
0
0
0
0
0
0
0
0
0
0
0
0
0
0
0
0
0
0
0
0
0
0
0
0
0
0
0
0
0
0
0
1
1
0
0
0
0
0
0
0
0
0
0
0
0
0
0
0
0
0
0
0
0
0
0
0
0
0
0
0
0
0
0
0
0
0
0
0
0
0
0
0
0
0
0
0
0
0
0
0
0
0
0
0
0
0
0
0
0
0
1
1
0
0
0
0
0
0
0
0
0
0
0
0
0
0
0
0
0
0
0
0
0
0
0
0
0
0
0
0
0
0
0
0
0
0
0
0
0
0
0
0
0
0
0
0
0
0
0
0
0
0
0
0
0
0
0
0
0
1
1
0
0
0
0
0
0
0
0
0
0
0
0
0
0
0
0
0
0
0
0
0
0
0
0
0
0
0
0
0
0
0
0
0
0
0
0
0
0
0
0
0
0
0
0
0
0
0
0
0
0
0
0
0
0
0
0
0
1
1
0
0
0
0
0
0
0
0
0
0
0
0
0
0
0
0
0
0
0
0
0
0
0
0
0
0
0
0
0
0
0
0
0
0
0
0
0
0
0
0
0
0
0
0
0
0
0
0
0
0
0
0
0
0
0
0
0
1
1
0
0
0
0
0
0
0
0
0
0
0
0
0
0
0
0
0
0
0
0
0
0
0
0
0
0
0
0
0
0
0
0
0
0
0
0
0
0
0
0
0
0
0
0
0
0
0
0
0
0
0
0
0
0
0
0
0
1
1
0
0
0
0
0
0
0
0
0
0
0
0
0
0
0
0
0
0
0
0
0
0
0
0
0
0
0
0
0
0
0
0
0
0
0
0
0
0
0
0
0
0
0
0
0
0
0
0
0
0
0
0
0
0
0
0
0
1
1
0
0
0
0
0
0
0
0
0
0
0
0
0
0
0
0
0
0
0
0
0
0
0
0
0
0
0
0
0
0
0
0
0
0
0
0
0
0
0
0
0
0
0
0
0
0
0
0
0
0
0
0
0
0
0
0
0
1
1
0
0
0
0
0
0
0
0
0
0
0
0
0
0
0
0
0
0
0
0
0
0
0
0
0
0
0
0
0
0
0
0
0
0
0
0
0
0
0
0
0
0
0
0
0
0
0
0
0
0
0
0
0
0
0
0
0
1
1
0
0
0
0
0
0
0
0
0
0
0
0
0
0
0
0
0
0
0
0
0
0
0
0
0
0
0
0
0
0
0
0
0
0
0
0
0
0
0
0
0
0
0
0
0
0
0
0
0
0
0
0
0
0
0
0
0
1
1
0
0
0
0
0
0
0
0
0
0
0
0
0
0
0
0
0
0
0
0
0
0
0
0
0
0
0
0
0
0
0
0
0
0
0
0
0
0
0
0
0
0
0
0
0
0
0
0
0
0
0
0
0
0
0
0
0
1
1
0
0
0
0
0
0
0
0
0
0
0
0
0
0
0
0
0
0
0
0
0
1
1
0
0
0
0
0
0
0
0
0
0
0
0
0
0
0
0
0
0
0
0
0
0
0
0
0
0
0
0
0
0
0
0
0
0
1
1
0
0
0
0
0
0
0
0
0
0
0
0
0
0
0
0
0
0
0
0
1
1
0
0
0
0
0
0
0
0
0
0
0
0
0
0
0
0
0
0
0
0
0
0
0
0
0
0
0
0
0
0
0
0
0
1
1
0
0
0
0
0
0
0
0
0
0
0
0
0
0
0
0
0
0
0
0
1
1
0
0
0
0
0
0
0
0
0
0
0
0
0
0
0
0
0
0
0
0
0
0
0
0
0
0
0
0
0
0
0
0
0
1
1
0
0
0
0
0
0
0
0
0
0
0
0
0
0
0
0
0
0
0
0
1
1
0
0
0
0
0
0
0
0
0
0
0
0
0
0
0
0
0
0
0
0
0
0
0
0
0
0
0
0
0
0
0
0
0
1
1
0
0
0
0
0
0
0
0
0
0
0
0
0
0
0
0
0
0
0
0
1
1
0
0
0
0
0
0
0
0
0
0
0
0
0
0
0
0
0
0
0
0
0
0
0
0
0
0
0
0
0
0
0
0
0
1
1
0
0
0
0
0
0
0
0
0
0
0
0
0
0
0
0
0
0
0
0
1
1
0
0
0
0
0
0
0
0
0
0
0
0
0
0
0
0
0
0
0
0
0
0
0
0
0
0
0
0
0
0
0
0
0
1
1
0
0
0
0
0
0
0
0
0
0
0
0
0
0
0
0
0
0
0
0
1
1
0
0
0
0
0
0
0
0
0
0
0
0
0
0
0
0
0
0
0
0
0
0
0
0
0
0
0
0
0
0
0
0
0
1
1
0
0
0
0
0
0
0
0
0
0
0
0
0
0
0
0
0
0
0
0
1
1
0
0
0
0
0
0
0
0
0
0
0
0
0
0
0
0
0
0
0
0
0
0
0
0
0
0
0
0
0
0
0
0
0
1
1
0
0
0
0
0
0
0
0
0
0
0
0
0
0
0
0
0
0
0
0
1
1
0
0
0
0
0
0
0
0
0
0
0
0
0
0
0
0
0
0
0
0
0
0
0
0
0
0
0
0
0
0
0
0
0
1
1
0
0
0
0
0
0
0
0
0
0
0
0
0
0
0
0
0
0
0
0
1
1
0
0
0
0
0
0
0
0
0
0
0
0
0
0
0
0
0
0
0
0
0
0
0
0
0
0
0
0
0
0
0
0
0
1
1
0
0
0
0
0
0
0
0
0
0
0
0
0
0
0
0
0
0
0
0
1
1
0
0
0
0
0
0
0
0
0
0
0
0
0
0
0
0
0
0
0
0
0
0
0
0
0
0
0
0
0
0
0
0
0
1
1
0
0
0
0
0
0
0
0
0
0
0
0
0
0
0
0
0
0
0
0
1
1
0
0
0
0
0
0
0
0
0
0
0
0
0
0
0
0
0
0
0
0
0
0
0
0
0
0
0
0
0
0
0
0
0
1
1
0
0
0
0
0
0
0
0
0
0
0
0
0
0
0
0
0
0
0
0
1
1
0
0
0
0
0
0
0
0
0
0
0
0
0
0
0
0
0
0
0
0
0
0
0
0
0
0
0
0
0
0
0
0
0
1
1
0
0
0
0
0
0
0
0
0
0
0
0
0
0
0
0
0
0
0
0
1
1
0
0
0
0
0
0
0
0
0
0
0
0
0
0
0
0
0
0
0
0
0
0
0
0
0
0
0
0
0
0
0
0
0
1
1
0
0
0
0
0
0
0
0
0
0
0
0
0
0
0
0
0
0
0
0
1
1
0
0
0
0
0
0
0
0
0
0
0
0
0
0
0
0
0
0
0
0
0
0
0
0
0
0
0
0
0
0
0
0
0
1
1
0
0
0
0
0
0
0
0
0
0
0
0
0
0
0
0
0
0
0
0
1
1
0
0
0
0
0
0
0
0
0
0
0
0
0
0
0
0
0
0
0
0
0
0
0
0
0
0
0
0
0
0
0
0
0
1
1
0
0
0
0
0
0
0
0
0
0
0
0
0
0
0
0
0
0
0
0
1
1
0
0
0
0
0
0
0
0
0
0
0
0
0
0
0
0
0
0
0
0
0
0
0
0
0
0
0
0
0
0
0
0
0
1
1
0
0
0
0
0
0
0
0
0
0
0
0
0
0
0
0
0
0
0
0
1
1
0
0
0
0
0
0
0
0
0
0
0
0
0
0
0
0
0
0
0
0
0
0
0
0
0
0
0
0
0
0
0
0
0
1
1
0
0
0
0
0
0
0
0
0
0
0
0
0
0
0
0
0
0
0
0
1
1
0
0
0
0
0
0
0
0
0
0
0
0
0
0
0
0
0
0
0
0
0
0
0
0
0
0
0
0
0
0
0
0
0
1
1
0
0
0
0
0
0
0
0
0
0
0
0
0
0
0
0
0
0
0
0
1
1
0
0
0
0
0
0
0
0
0
0
0
0
0
0
0
0
0
0
0
0
0
0
0
0
0
0
0
0
0
0
0
0
0
1
1
0
0
0
0
0
0
0
0
0
0
0
0
0
0
0
0
0
0
0
0
1
1
0
0
0
0
0
0
0
0
0
0
0
0
0
0
0
0
0
0
0
0
0
0
0
0
0
0
0
0
0
0
0
0
0
1
1
0
0
0
0
0
0
0
0
0
0
0
0
0
0
0
0
0
0
0
0
1
1
0
0
0
0
0
0
0
0
0
0
0
0
0
0
0
0
0
0
0
0
0
0
0
0
0
0
0
0
0
0
0
0
0
1
1
1
1
1
1
1
1
1
1
1
1
1
1
1
1
1
1
1
1
1
1
1
1
1
1
1
1
1
1
1
1
1
1
1
1
1
1
1
1
1
1
1
1
1
1
1
1
1
1
1
1
1
1
1
1
1
1
				</DataArray>
				<DataArray type="Float64" Name="h" NumberOfComponents="1" Format="ascii">
1.4613928035
1.4556886966
1.4551704384
1.4541482989
1.4526533024
1.4507346627
1.4484610474
1.4459190481
1.4432072655
1.4404284469
1.4376801900
1.4350466721
1.4325940714
1.4303690803
1.4284009175
1.4267055988
1.4252901132
1.4241567120
1.4233060498
1.4227383445
1.4224541751
1.4224541751
1.0489699075
1.0542563972
1.0536859012
1.0525445275
1.0508345167
1.0485643281
1.0457533408
1.0424370381
1.0386721330
1.0345420434
1.0301599060
1.0256671910
1.0212265517
1.0170068465
1.0131631356
1.0098161939
1.0070364444
1.0048382163
1.0031852186
1.0020043255
1.0012034974
1.0006884122
1.0003744733
1.0001933594
1.0000945934
1.0000437551
1.0000190960
1.0000078459
1.0000030276
1.0000010944
1.0000003696
1.0000001164
1.0000000345
1.0000000114
1.0000000114
1.4556886966
1.4496884370
1.4492721684
1.4484444286
1.4472183202
1.4456191454
1.4436889356
1.4414886632
1.4390957462
1.4365985301
1.4340877713
1.4316474936
1.4293483757
1.4272438575
1.4253700975
1.4237489324
1.4223915388
1.4213028216
1.4204849263
1.4199388067
1.4196653700
1.4224541751
1.0542563972
1.0596779741
1.0591067375
1.0579617092
1.0562408343
1.0539461196
1.0510883108
1.0476921934
1.0438021466
1.0394887511
1.0348538122
1.0300317629
1.0251857063
1.0204948900
1.0161351824
1.0122563195
1.0089608810
1.0062924977
1.0042362088
1.0027295238
1.0016805863
1.0009872432
1.0005524231
1.0002939419
1.0001484658
1.0000710468
1.0000321476
1.0000137260
1.0000055179
1.0000020835
1.0000007372
1.0000002440
1.0000000764
1.0000000271
1.0000000114
1.4542279788
1.4483266085
1.4479482665
1.4471949472
1.4460765798
1.4446131664
1.4428391353
1.4408059361
1.4385805748
1.4362415590
1.4338718840
1.4315508906
1.4293478480
1.4273175088
1.4254990472
1.4239179488
1.4225888697
1.4215196020
1.4207144806
1.4201760203
1.4199061530
1.4226339460
1.0558419217
1.0609337062
1.0604023663
1.0593360934
1.0577308707
1.0555855576
1.0529057550
1.0497079292
1.0460237037
1.0419056460
1.0374326411
1.0327134689
1.0278872507
1.0231169506
1.0185755622
1.0144262576
1.0107994636
1.0077746291
1.0053721247
1.0035570248
1.0022535602
1.0013642881
1.0007881260
1.0004338103
1.0002271688
1.0001129818
1.0000532713
1.0000237676
1.0000100138
1.0000039755
1.0000014840
1.0000005203
1.0000001739
1.0000000666
1.0000000300
1.4513711728
1.4456574115
1.4453528408
1.4447441301
1.4438348530
1.4426346478
1.4411633586
1.4394543824
1.4375550622
1.4355252356
1.4334329289
1.4313480907
1.4293366631
1.4274552789
1.4257484324
1.4242484048
1.4229765704
1.4219464664
1.4211669046
1.4206436613
1.4203808452
1.4229875874
1.0587535278
1.0632543258
1.0627944161
1.0618690239
1.0604706153
1.0585927963
1.0562329533
1.0533944449
1.0500886713
1.0463391022
1.0421864542
1.0376947245
1.0329578372
1.0281029024
1.0232873416
1.0186871220
1.0144744944
1.0107913059
1.0077261051
1.0053025011
1.0034834714
1.0021879345
1.0013123205
1.0007507418
1.0004090772
1.0002119944
1.0001043089
1.0000486439
1.0000214590
1.0000089367
1.0000035065
1.0000012957
1.0000004589
1.0000001879
1.0000000892
1.4472442318
1.4417891121
1.4415900168
1.4411877843
1.4405765702
1.4397511411
1.4387109663
1.4374646404
1.4360326239
1.4344490129
1.4327606602
1.4310234420
1.4292972431
1.4276398859
1.4261022344
1.4247255856
1.4235407847
1.4225698706
1.4218285582
1.4213278266
1.4210753419
1.4235037304
1.0625579516
1.0663155508
1.0659456240
1.0651973218
1.0640584785
1.0625166498
1.0605606649
1.0581807461
1.0553679465
1.0521156266
1.0484230995
1.0443022234
1.0397883814
1.0349530250
1.0299142529
1.0248393903
1.0199316585
1.0154011314
1.0114270258
1.0081238425
1.0055256405
1.0035919765
1.0022295809
1.0013202431
1.0007450461
1.0004001990
1.0002043203
1.0000989945
1.0000454380
1.0000197211
1.0000080798
1.0000031255
1.0000011652
1.0000005054
1.0000002516
1.4420242953
1.4368780057
1.4368100803
1.4366642967
1.4364227420
1.4360617450
1.4355562308
1.4348854529
1.4340382076
1.4330179051
1.4318453236
1.4305578031
1.4292056598
1.4278458253
1.4265350818
1.4253247526
1.4242571852
1.4233654287
1.4226746203
1.4222031489
1.4219639084
1.4241623516
1.0667757214
1.0697487153
1.0694747595
1.0689144583
1.0680499792
1.0668627799
1.0653346206
1.0634459556
1.0611729253
1.0584860420
1.0553511324
1.0517338168
1.0476105839
1.0429859019
1.0379135640
1.0325162740
1.0269909234
1.0215909581
1.0165846212
1.0121998634
1.0085792031
1.0057613572
1.0036923465
1.0022570562
1.0013151595
1.0007298632
1.0003853479
1.0001933085
1.0000919976
1.0000414681
1.0000176779
1.0000071340
1.0000027897
1.0000012762
1.0000006635
1.4359276237
1.4311213245
1.4312028403
1.4313489690
1.4315278381
1.4316950495
1.4317986399
1.4317862385
1.4316125938
1.4312476264
1.4306826148
1.4299324414
1.4290339344
1.4280399359
1.4270112735
1.4260089947
1.4250880492
1.4242945402
1.4236654832
1.4232290819
1.4230054213
1.4249322151
1.0709842115
1.0732151926
1.0730346793
1.0726557968
1.0720535866
1.0712032800
1.0700814345
1.0686630879
1.0669168393
1.0648011581
1.0622623806
1.0592353763
1.0556507418
1.0514500856
1.0466107433
1.0411777565
1.0352911583
1.0291937101
1.0232052469
1.0176616357
1.0128408269
1.0089064760
1.0058900412
1.0037130530
1.0022308338
1.0012768906
1.0006958053
1.0003606218
1.0001775429
1.0000829133
1.0000366864
1.0000154060
1.0000063024
1.0000030296
1.0000016393
1.4291955770
1.4247473112
1.4249884584
1.4254462985
1.4260740811
1.4268057890
1.4275619740
1.4282583413
1.4288152786
1.4291683679
1.4292775477
1.4291322886
1.4287522065
1.4281823053
1.4274845175
1.4267280687
1.4259805227
1.4253023530
1.4247445977
1.4243477159
1.4241411816
1.4257691875
1.0748693908
1.0764485226
1.0763555892
1.0761441079
1.0757796909
1.0752305330
1.0744691934
1.0734687963
1.0721967029
1.0706091972
1.0686472182
1.0662331890
1.0632725679
1.0596626194
1.0553122825
1.0501763080
1.0442975621
1.0378438819
1.0311171964
1.0245137407
1.0184407639
1.0132210340
1.0090265437
1.0058683156
1.0036335832
1.0021430305
1.0012036528
1.0006434533
1.0003270982
1.0001579383
1.0000723733
1.0000315544
1.0000134716
1.0000067808
1.0000038076
1.4220781754
1.4180006863
1.4184037614
1.4191778240
1.4202612494
1.4215667340
1.4229881685
1.4244105935
1.4257213940
1.4268227068
1.4276429754
1.4281446999
1.4283274048
1.4282246308
1.4278958994
1.4274160285
1.4268640403
1.4263151109
1.4258358361
1.4254811834
1.4252923460
1.4266129616
1.0782347703
1.0792689361
1.0792588012
1.0792017560
1.0790505295
1.0787645452
1.0783125658
1.0776678020
1.0768003438
1.0756708854
1.0742252584
1.0723886158
1.0700619556
1.0671230932
1.0634366712
1.0588803275
1.0533883902
1.0470075837
1.0399448730
1.0325732664
1.0253741334
1.0188256534
1.0132834629
1.0089119550
1.0056876635
1.0034549621
1.0019982408
1.0011003549
1.0005766151
1.0002873189
1.0001360733
1.0000614636
1.0000273213
1.0000143520
1.0000083394
1.4148215197
1.4111294557
1.4116896305
1.4127705269
1.4142962874
1.4161595009
1.4182292264
1.4203622693
1.4224157502
1.4242608703
1.4257961942
1.4269574045
1.4277223987
1.4281103146
1.4281746482
1.4279924459
1.4276518714
1.4272419554
1.4268454957
1.4265337940
1.4263621208
1.4273872853
1.0809825525
1.0815760697
1.0816480146
1.0817390027
1.0817840003
1.0817309767
1.0815442307
1.0811977632
1.0806661934
1.0799178265
1.0789088977
1.0775766353
1.0758326839
1.0735578203
1.0706015557
1.0667949799
1.0619834726
1.0560834332
1.0491548032
1.0414574024
1.0334502689
1.0257074041
1.0187702778
1.0130099454
1.0085634165
1.0053578172
1.0031892428
1.0018071303
1.0009747933
1.0005003920
1.0002444558
1.0001141626
1.0000527160
1.0000288085
1.0000172761
1.4076580672
1.4043724149
1.4050786145
1.4064446160
1.4083812846
1.4107627725
1.4134358442
1.4162324681
1.4189835035
1.4215332815
1.4237538676
1.4255560613
1.4268961231
1.4277768257
1.4282422532
1.4283677936
1.4282473669
1.4279817418
1.4276694686
1.4273993920
1.4272431840
1.4280043986
1.0830868650
1.0833323772
1.0834915535
1.0837336954
1.0839693900
1.0841315742
1.0841788277
1.0840858576
1.0838322238
1.0833946605
1.0827415288
1.0818259687
1.0805782856
1.0788971547
1.0766413799
1.0736295513
1.0696558585
1.0645326234
1.0581648091
1.0506394278
1.0422894666
1.0336775652
1.0254718023
1.0182620245
1.0124098250
1.0080010501
1.0049010148
1.0028556180
1.0015837338
1.0008362425
1.0004206573
1.0002027157
1.0000970228
1.0000549915
1.0000339489
1.4007982539
1.3979468281
1.3987822231
1.4004001628
1.4026993929
1.4055377242
1.4087428752
1.4121263874
1.4154981297
1.4186810774
1.4215257147
1.4239214020
1.4258040770
1.4271591193
1.4280181698
1.4284507605
1.4285522921
1.4284319412
1.4282024013
1.4279705688
1.4278268626
1.4283710896
1.0845689910
1.0845443927
1.0848030718
1.0852105360
1.0856442757
1.0860178007
1.0862823907
1.0864130344
1.0863940079
1.0862100804
1.0858412697
1.0852567553
1.0844077498
1.0832177803
1.0815701904
1.0792981333
1.0761841300
1.0719814906
1.0664719683
1.0595604048
1.0513834175
1.0423741779
1.0332135290
1.0246576905
1.0173189960
1.0115162641
1.0072612974
1.0043490991
1.0024777693
1.0013439853
1.0006950143
1.0003449804
1.0001707672
1.0001000931
1.0000634606
1.3944258583
1.3920398834
1.3929817639
1.3948069314
1.3974036508
1.4006162704
1.4042577735
1.4081249169
1.4120131009
1.4157306153
1.4191123012
1.4220304269
1.4244027192
1.4261967647
1.4274290477
1.4281589117
1.4284783224
1.4285005098
1.4283496145
1.4281504404
1.4280147349
1.4283980527
1.0854736986
1.0852416645
1.0856204818
1.0862195136
1.0868719727
1.0874668955
1.0879465785
1.0882857951
1.0884731461
1.0885006578
1.0883586718
1.0880307104
1.0874876604
1.0866789289
1.0855188298
1.0838713194
1.0815376667
1.0782576352
1.0737416172
1.0677472173
1.0601996400
1.0513177617
1.0416635683
1.0320456038
1.0232888445
1.0159880673
1.0103834035
1.0063932282
1.0037396234
1.0020815751
1.0011050369
1.0005640032
1.0002881367
1.0001741693
1.0001131518
1.3886930178
1.3868008562
1.3878201444
1.3897956897
1.3926080381
1.3960924414
1.4000530610
1.4042789461
1.4085585967
1.4126928825
1.4165071823
1.4198611093
1.4226564140
1.4248427092
1.4264188313
1.4274296352
1.4279583961
1.4281172983
1.4280383132
1.4278634942
1.4277291344
1.4280096158
1.0858483971
1.0854567170
1.0859863059
1.0868162763
1.0877216865
1.0885617713
1.0892682859
1.0898153287
1.0901954454
1.0904071661
1.0904497415
1.0903188375
1.0900022879
1.0894730734
1.0886767133
1.0875144809
1.0858243902
1.0833672623
1.0798338953
1.0748921534
1.0682902364
1.0600064221
1.0503812438
1.0401338632
1.0301966127
1.0214235958
1.0143432755
1.0090822694
1.0054533588
1.0031126754
1.0016942788
1.0008878151
1.0004671615
1.0002904523
1.0001929414
1.3837134321
1.3823332144
1.3833942608
1.3854512656
1.3883816979
1.3920182922
1.3961643131
1.4006095609
1.4051437626
1.4095674527
1.4137021063
1.4173984216
1.4205439415
1.4230700158
1.4249555166
1.4262267280
1.4269529574
1.4272398003
1.4272227040
1.4270599706
1.4269168972
1.4271484359
1.0857264469
1.0852087148
1.0859321614
1.0870469528
1.0882534741
1.0893762213
1.0903352242
1.0911034670
1.0916770543
1.0920604082
1.0922605397
1.0922832681
1.0921304336
1.0917949916
1.0912505371
1.0904355333
1.0892319942
1.0874425033
1.0847780255
1.0808749107
1.0753654423
1.0680159024
1.0589016080
1.0485305679
1.0377978058
1.0277308327
1.0191560337
1.0124820765
1.0076943210
1.0045014547
1.0025099222
1.0013484551
1.0007294207
1.0004653245
1.0003154230
1.3795567786
1.3786897426
1.3797511518
1.3818106260
1.3847495598
1.3884072797
1.3925960374
1.3971157708
1.4017653972
1.4063512330
1.4106950915
1.4146412882
1.4180641501
1.4208762485
1.4230344053
1.4245426751
1.4254513785
1.4258537729
1.4258837735
1.4257146577
1.4255472181
1.4257754966
1.0851126037
1.0844894263
1.0854661247
1.0869360855
1.0885065470
1.0899637946
1.0912155135
1.0922329645
1.0930152548
1.0935722054
1.0939178335
1.0940666645
1.0940320714
1.0938233673
1.0934378498
1.0928474556
1.0919781662
1.0906831618
1.0887181610
1.0857339286
1.0813111915
1.0750654116
1.0668227059
1.0568129681
1.0457553531
1.0347142999
1.0247574895
1.0166118815
1.0105164145
1.0063051101
1.0035988102
1.0019800023
1.0010990959
1.0007177961
1.0004955719
1.3762435591
1.3758697870
1.3768868028
1.3788644199
1.3816971418
1.3852420903
1.3893316489
1.3937853825
1.3984184361
1.4030474980
1.4074973373
1.4116071115
1.4152381767
1.4182836844
1.4206766997
1.4223959993
1.4234683588
1.4239688544
1.4240240844
1.4238205402
1.4236039453
1.4238648748
1.0839693285
1.0832500356
1.0845620141
1.0864769993
1.0884906905
1.0903506629
1.0919520776
1.0932631428
1.0942849020
1.0950321525
1.0955256919
1.0957880931
1.0958426574
1.0957121435
1.0954132670
1.0949463718
1.0942773508
1.0933106576
1.0918582460
1.0896150741
1.0861632499
1.0810364676
1.0738674748
1.0646036027
1.0536947585
1.0420949536
1.0309984860
1.0214295938
1.0139386695
1.0085647140
1.0050020212
1.0028155578
1.0016012777
1.0010683827
1.0007499639
1.3737431130
1.3738208769
1.3747492655
1.3765625776
1.3791787834
1.3824848349
1.3863444046
1.3906052946
1.3951044185
1.3996717419
1.4041361228
1.4083317593
1.4121068275
1.4153345259
1.4179230015
1.4198234462
1.4210350896
1.4216088563
1.4216570629
1.4213764482
1.4210709381
1.4213912460
1.0821997784
1.0813842415
1.0831474291
1.0856226418
1.0881803033
1.0905334023
1.0925638238
1.0942334776
1.0955432414
1.0965126175
1.0971698822
1.0975462588
1.0976747049
1.0975897456
1.0973241334
1.0969016350
1.0963223571
1.0955380024
1.0944189685
1.0927197740
1.0900602378
1.0859523757
1.0799060314
1.0716288367
1.0612690417
1.0495525631
1.0376578576
1.0268264076
1.0179344791
1.0112958865
1.0067485604
1.0038833784
1.0022595816
1.0015373926
1.0010954869
1.3719781296
1.3724470043
1.3732477062
1.3748244572
1.3771285755
1.3800879113
1.3836071284
1.3875691355
1.3918364319
1.3962537202
1.4006540710
1.4048663967
1.4087254243
1.4120842134
1.4148254867
1.4168713196
1.4181899435
1.4188018561
1.4187961874
1.4183741220
1.4179152675
1.4183143573
1.0796175464
1.0786976705
1.0810827987
1.0842707536
1.0875069857
1.0904794410
1.0930525186
1.0951745709
1.0968426624
1.0980814543
1.0989293222
1.0994290022
1.0996249734
1.0995636987
1.0992920892
1.0988532972
1.0982758121
1.0975523725
1.0966083506
1.0952625501
1.0931931768
1.0899345142
1.0849395173
1.0777422722
1.0682101024
1.0567763771
1.0444713072
1.0326331617
1.0224260372
1.0144806066
1.0088486307
1.0052022646
1.0030930717
1.0021425972
1.0015475176
1.3708342598
1.3716213407
1.3722647411
1.3735502741
1.3754702096
1.3780015953
1.3810970587
1.3846792054
1.3886383112
1.3928343092
1.3971041900
1.4012712419
1.4051567477
1.4085939333
1.4114402381
1.4135877804
1.4149707736
1.4155724140
1.4154466065
1.4147870990
1.4140692310
1.4145614042
1.0758906226
1.0748513808
1.0781245328
1.0822407744
1.0863524085
1.0901342968
1.0934196939
1.0961297455
1.0982531822
1.0998230045
1.1008943794
1.1015284438
1.1017864475
1.1017296026
1.1014191244
1.1009149721
1.1002688857
1.0995077955
1.0986055360
1.0974429572
1.0957651326
1.0931560092
1.0890634347
1.0829165382
1.0743551305
1.0635102157
1.0511700698
1.0386395163
1.0272872203
1.0180626663
1.0112878353
1.0067768279
1.0041127767
1.0028964501
1.0021176738
1.3701747587
1.3712025725
1.3716712067
1.3726329937
1.3741251330
1.3761781456
1.3787961076
1.3819434693
1.3855391354
1.3894582996
1.3935416700
1.3976069379
1.4014624116
1.4049222846
1.4078193572
1.4100154118
1.4114078051
1.4119345379
1.4115974304
1.4105588586
1.4094050681
1.4100015115
1.0704373667
1.0692577784
1.0738663255
1.0792503998
1.0845591760
1.0894551847
1.0937093166
1.0971970827
1.0998989957
1.1018677146
1.1031898891
1.1039584162
1.1042613018
1.1041806011
1.1037942551
1.1031780385
1.1024027871
1.1015229101
1.1005527728
1.0994288477
1.0979630596
1.0958026781
1.0924255895
1.0872143005
1.0796459953
1.0695800392
1.0575185262
1.0446220567
1.0323558880
1.0219489101
1.0140239251
1.0085935586
1.0053183011
1.0038031816
1.0028113878
1.3698573459
1.3710515706
1.3713405975
1.3719688498
1.3730183221
1.3745728752
1.3766878972
1.3793695202
1.3825650966
1.3861650031
1.3900138737
1.3939244270
1.3976930542
1.4011162137
1.4040030776
1.4061848928
1.4075190841
1.4078888672
1.4072199003
1.4055964414
1.4037021011
1.4044123920
1.0622131062
1.0608679139
1.0676490135
1.0749221427
1.0820052399
1.0885092084
1.0940985105
1.0985993306
1.1020061734
1.1044215824
1.1059915571
1.1068624186
1.1071638430
1.1070076371
1.1064925215
1.1057100973
1.1047467617
1.1036778892
1.1025497843
1.1013457068
1.0999388887
1.0980434332
1.0951874983
1.0907500829
1.0841069252
1.0748979433
1.0633388028
1.0503721624
1.0374519788
1.0260159477
1.0169866883
1.0106182227
1.0066948538
1.0048559808
1.0036254627
1.3697490800
1.3710446143
1.3711600865
1.3714645546
1.3720809832
1.3731424790
1.3747523570
1.3769562070
1.3797287495
1.3829754278
1.3865454940
1.3902480693
1.3938695736
1.3971910190
1.3999999644
1.4020977027
1.4032986520
1.4034192853
1.4022741373
1.3997800033
1.3966044948
1.3974380697
1.0491422949
1.0476033995
1.0584243631
1.0689278561
1.0788555236
1.0877073836
1.0950660167
1.1007848247
1.1049514125
1.1077804318
1.1095202034
1.1103979927
1.1106015153
1.1102808870
1.1095588126
1.1085419397
1.1073281423
1.1060068738
1.1046472330
1.1032690014
1.1017977439
1.1000109733
1.0974956977
1.0936553606
1.0878138644
1.0794490276
1.0685198188
1.0557178595
1.0423979604
1.0301219431
1.0200819302
1.0127956282
1.0082114707
1.0060348546
1.0045460669
1.3697394104
1.3710840090
1.3710396423
1.3710438203
1.3712539802
1.3718453651
1.3729631301
1.3746880750
1.3770198978
1.3798782404
1.3831173379
1.3865441983
1.3899380379
1.3930688258
1.3957086390
1.3976360332
1.3986280260
1.3984296611
1.3967024451
1.3930304597
1.3876275693
1.3885975499
1.0260432950
1.0242705670
1.0446647470
1.0616409117
1.0762356425
1.0882718455
1.0976510581
1.1045370419
1.1092805040
1.1122997479
1.1139902258
1.1146799121
1.1146215328
1.1140039596
1.1129710089
1.1116394490
1.1101119871
1.1084838667
1.1068370576
1.1052167403
1.1035899183
1.1017897608
1.0994624751
1.0960512677
1.0908640507
1.0832686107
1.0730118377
1.0605351199
1.0470365821
1.0341209101
1.0231991241
1.0150522336
1.0098210555
1.0073057413
1.0055476582
1.3697500451
1.3711054846
1.3709192833
1.3706544612
1.3704949686
1.3706491195
1.3712955606
1.3725435662
1.3744125936
1.3768321263
1.3796571860
1.3826881678
1.3856925288
1.3884262076
1.3906482163
1.3921303869
1.3926572582
1.3919984814
1.3898202197
1.3854539072
1.3775824704
1.3787232740
0.9758438926
0.9737138814
1.0252105116
1.0562508420
1.0777048854
1.0929852425
1.1037224010
1.1109809872
1.1155942457
1.1182413337
1.1194585676
1.1196497310
1.1191066129
1.1180351233
1.1165832905
1.1148647647
1.1129759989
1.1110077835
1.1090445276
1.1071457160
1.1053084737
1.1034118275
1.1011564617
1.0980313998
1.0933518404
1.0864175573
1.0768111855
1.0647474848
1.0512414641
1.0378755341
1.0262206826
1.0173009811
1.0114622653
1.0086211057
1.0065930855
1.3697400660
1.3710814633
1.3707737084
1.3702757975
1.3697901626
1.3695486490
1.3697539371
1.3705350478
1.3719225998
1.3738456476
1.3761449677
1.3785894049
1.3808909893
1.3827133513
1.3836594746
1.3832296010
1.3807196330
1.3749832908
1.3638860437
1.3429514130
1.3016526680
1.2132884531
1.0965903839
1.1135283920
1.0571709647
1.0636934890
1.0795054004
1.0918729935
1.1023442930
1.1108031904
1.1171532705
1.1215019806
1.1241157422
1.1253308221
1.1254764864
1.1248334583
1.1236200101
1.1219957742
1.1200773390
1.1179547245
1.1157054915
1.1134068858
1.1111376042
1.1089627969
1.1069002151
1.1048652782
1.1026062077
1.0996579575
1.0953563683
1.0889642952
1.0799440290
1.0683192922
1.0549213318
1.0412672736
1.0290318174
1.0194481281
1.0130635261
1.0099224830
1.0076353370
1.3697038297
1.3710178628
1.3706107146
1.3699203391
1.3691612586
1.3685813747
1.3684004729
1.3687621398
1.3697053937
1.3711589634
1.3729532508
1.3748355680
1.3764843342
1.3775169347
1.3774772258
1.3757985287
1.3717242503
1.3641374380
1.3512183548
1.3297176146
1.2933228691
1.2302015818
1.0930913262
1.1106839188
1.0843288839
1.0857574434
1.0950676402
1.1045186114
1.1129596250
1.1198152563
1.1248827185
1.1282073278
1.1299949626
1.1305275371
1.1300933603
1.1289474137
1.1272932106
1.1252807814
1.1230185770
1.1205878522
1.1180564777
1.1154930322
1.1129716850
1.1105610622
1.1082943449
1.1061161284
1.1038150312
1.1009686022
1.0969393894
1.0909745220
1.0824525798
1.0712455574
1.0580183500
1.0442020472
1.0315289685
1.0214007764
1.0145486171
1.0111447847
1.0086208961
1.3696549606
1.3709375553
1.3704538987
1.3696142521
1.3686407252
1.3677920080
1.3673002911
1.3673207996
1.3679007381
1.3689717442
1.3703613613
1.3718085929
1.3729796118
1.3734788663
1.3728418979
1.3705099361
1.3657764007
1.3576722406
1.3447554317
1.3247160473
1.2936239765
1.2456943740
1.1547266723
1.1416024159
1.1173520545
1.1108463474
1.1127393280
1.1174900562
1.1228377521
1.1275846790
1.1311885674
1.1334804313
1.1345205488
1.1344896713
1.1336086092
1.1320914721
1.1301191612
1.1278290901
1.1253214066
1.1226699304
1.1199346693
1.1171768658
1.1144661491
1.1118725568
1.1094401192
1.1071357274
1.1047804996
1.1019884533
1.0981492119
1.0925069084
1.0843847979
1.0735409545
1.0605020072
1.0466109835
1.0336251854
1.0230735463
1.0158427591
1.0122216518
1.0094941969
1.3696086962
1.3708626025
1.3703243967
1.3693777316
1.3682492719
1.3672047503
1.3664851841
1.3662549490
1.3665688568
1.3673633251
1.3684676457
1.3696201269
1.3704855196
1.3706693027
1.3697151927
1.3670885390
1.3621401326
1.3540250858
1.3415642745
1.3230110199
1.2956632957
1.2560594610
1.1901300205
1.1643308728
1.1404062601
1.1294513372
1.1266290419
1.1278685651
1.1307177708
1.1337055026
1.1360705785
1.1374901747
1.1379083088
1.1374206665
1.1361888628
1.1343895768
1.1321820900
1.1296914554
1.1270098114
1.1242042009
1.1213277514
1.1184351835
1.1155915481
1.1128666318
1.1103113063
1.1079082078
1.1055025996
1.1027369099
1.0990240550
1.0936112696
1.0857873048
1.0752301904
1.0623615108
1.0484480667
1.0352528388
1.0243940057
1.0168786765
1.0130913720
1.0102027775
1.3695748772
1.3708074330
1.3702346409
1.3692198587
1.3679922765
1.3668218671
1.3659553702
1.3655635527
1.3657071046
1.3663269592
1.3672554271
1.3682327706
1.3689258428
1.3689445072
1.3678421222
1.3651041467
1.3601215865
1.3521275774
1.3400951612
1.3225820354
1.2975121929
1.2624776776
1.2097200688
1.1790127151
1.1547461386
1.1413277528
1.1357684381
1.1347997189
1.1360053166
1.1378097447
1.1393310253
1.1401536825
1.1401467558
1.1393489034
1.1378810509
1.1358937290
1.1335310415
1.1309094378
1.1281155321
1.1252116656
1.1222460968
1.1192687628
1.1163410699
1.1135319298
1.1108960451
1.1084259564
1.1059827811
1.1032282527
1.0995920937
1.0943260363
1.0866991767
1.0763390686
1.0635972233
1.0496852337
1.0363634859
1.0253060554
1.0176016124
1.0137023408
1.0107022367
1.3695577889
1.3707790517
1.3701895936
1.3691419110
1.3678663085
1.3666347493
1.3656967940
1.3652265019
1.3652877528
1.3658241379
1.3666700124
1.3675672755
1.3681846037
1.3681348893
1.3669770975
1.3642071854
1.3592356871
1.3513317115
1.3395357575
1.3225366939
1.2985244101
1.2655221846
1.2184291321
1.1861166255
1.1615714196
1.1470500688
1.1402400371
1.1382209959
1.1386255348
1.1398452815
1.1409468991
1.1414717220
1.1412528304
1.1403007195
1.1387158902
1.1366356447
1.1341964369
1.1315104558
1.1286616275
1.1257099879
1.1227013472
1.1196831634