<VTKFile type="UnstructuredGrid" version="0.1">
	<UnstructuredGrid>
		<Piece NumberOfPoints="13548" NumberOfCells="3387">
			<CellData>
				<DataArray type="Int32" Name="ghost" NumberOfComponents="1" Format="ascii">
1
1
1
1
1
1
1
1
1
1
1
1
1
1
1
1
1
1
1
1
1
1
1
1
1
1
1
1
1
1
1
1
1
1
1
1
1
1
1
1
1
1
1
1
1
1
1
1
1
1
1
1
1
1
1
1
1
1
0
0
0
0
0
0
0
0
0
0
0
0
0
0
0
0
0
0
0
0
1
1
0
0
0
0
0
0
0
0
0
0
0
0
0
0
0
0
0
0
0
0
0
0
0
0
0
0
0
0
0
0
0
0
0
1
1
0
0
0
0
0
0
0
0
0
0
0
0
0
0
0
0
0
0
0
0
1
1
0
0
0
0
0
0
0
0
0
0
0
0
0
0
0
0
0
0
0
0
0
0
0
0
0
0
0
0
0
0
0
0
0
1
1
0
0
0
0
0
0
0
0
0
0
0
0
0
0
0
0
0
0
0
0
1
1
0
0
0
0
0
0
0
0
0
0
0
0
0
0
0
0
0
0
0
0
0
0
0
0
0
0
0
0
0
0
0
0
0
1
1
0
0
0
0
0
0
0
0
0
0
0
0
0
0
0
0
0
0
0
0
1
1
0
0
0
0
0
0
0
0
0
0
0
0
0
0
0
0
0
0
0
0
0
0
0
0
0
0
0
0
0
0
0
0
0
1
1
0
0
0
0
0
0
0
0
0
0
0
0
0
0
0
0
0
0
0
0
1
1
0
0
0
0
0
0
0
0
0
0
0
0
0
0
0
0
0
0
0
0
0
0
0
0
0
0
0
0
0
0
0
0
0
1
1
0
0
0
0
0
0
0
0
0
0
0
0
0
0
0
0
0
0
0
0
1
1
0
0
0
0
0
0
0
0
0
0
0
0
0
0
0
0
0
0
0
0
0
0
0
0
0
0
0
0
0
0
0
0
0
1
1
0
0
0
0
0
0
0
0
0
0
0
0
0
0
0
0
0
0
0
0
1
1
0
0
0
0
0
0
0
0
0
0
0
0
0
0
0
0
0
0
0
0
0
0
0
0
0
0
0
0
0
0
0
0
0
1
1
0
0
0
0
0
0
0
0
0
0
0
0
0
0
0
0
0
0
0
0
1
1
0
0
0
0
0
0
0
0
0
0
0
0
0
0
0
0
0
0
0
0
0
0
0
0
0
0
0
0
0
0
0
0
0
1
1
0
0
0
0
0
0
0
0
0
0
0
0
0
0
0
0
0
0
0
0
1
1
0
0
0
0
0
0
0
0
0
0
0
0
0
0
0
0
0
0
0
0
0
0
0
0
0
0
0
0
0
0
0
0
0
1
1
0
0
0
0
0
0
0
0
0
0
0
0
0
0
0
0
0
0
0
0
1
1
0
0
0
0
0
0
0
0
0
0
0
0
0
0
0
0
0
0
0
0
0
0
0
0
0
0
0
0
0
0
0
0
0
1
1
0
0
0
0
0
0
0
0
0
0
0
0
0
0
0
0
0
0
0
0
1
1
0
0
0
0
0
0
0
0
0
0
0
0
0
0
0
0
0
0
0
0
0
0
0
0
0
0
0
0
0
0
0
0
0
1
1
0
0
0
0
0
0
0
0
0
0
0
0
0
0
0
0
0
0
0
0
1
1
0
0
0
0
0
0
0
0
0
0
0
0
0
0
0
0
0
0
0
0
0
0
0
0
0
0
0
0
0
0
0
0
0
1
1
0
0
0
0
0
0
0
0
0
0
0
0
0
0
0
0
0
0
0
0
1
1
0
0
0
0
0
0
0
0
0
0
0
0
0
0
0
0
0
0
0
0
0
0
0
0
0
0
0
0
0
0
0
0
0
1
1
0
0
0
0
0
0
0
0
0
0
0
0
0
0
0
0
0
0
0
0
1
1
0
0
0
0
0
0
0
0
0
0
0
0
0
0
0
0
0
0
0
0
0
0
0
0
0
0
0
0
0
0
0
0
0
1
1
0
0
0
0
0
0
0
0
0
0
0
0
0
0
0
0
0
0
0
0
1
1
0
0
0
0
0
0
0
0
0
0
0
0
0
0
0
0
0
0
0
0
0
0
0
0
0
0
0
0
0
0
0
0
0
1
1
0
0
0
0
0
0
0
0
0
0
0
0
0
0
0
0
0
0
0
0
1
1
0
0
0
0
0
0
0
0
0
0
0
0
0
0
0
0
0
0
0
0
0
0
0
0
0
0
0
0
0
0
0
0
0
1
1
0
0
0
0
0
0
0
0
0
0
0
0
0
0
0
0
0
0
0
0
1
1
0
0
0
0
0
0
0
0
0
0
0
0
0
0
0
0
0
0
0
0
0
0
0
0
0
0
0
0
0
0
0
0
0
1
1
0
0
0
0
0
0
0
0
0
0
0
0
0
0
0
0
0
0
0
0
1
1
0
0
0
0
0
0
0
0
0
0
0
0
0
0
0
0
0
0
0
0
0
0
0
0
0
0
0
0
0
0
0
0
0
1
1
0
0
0
0
0
0
0
0
0
0
0
0
0
0
0
0
0
0
0
0
1
1
0
0
0
0
0
0
0
0
0
0
0
0
0
0
0
0
0
0
0
0
0
0
0
0
0
0
0
0
0
0
0
0
0
1
1
0
0
0
0
0
0
0
0
0
0
0
0
0
0
0
0
0
0
0
0
1
1
0
0
0
0
0
0
0
0
0
0
0
0
0
0
0
0
0
0
0
0
0
0
0
0
0
0
0
0
0
0
0
0
0
1
1
0
0
0
0
0
0
0
0
0
0
0
0
0
0
0
0
0
0
0
0
1
1
0
0
0
0
0
0
0
0
0
0
0
0
0
0
0
0
0
0
0
0
0
0
0
0
0
0
0
0
0
0
0
0
0
1
1
0
0
0
0
0
0
0
0
0
0
0
0
0
0
0
0
0
0
0
0
1
1
0
0
0
0
0
0
0
0
0
0
0
0
0
0
0
0
0
0
0
0
0
0
0
0
0
0
0
0
0
0
0
0
0
1
1
0
0
0
0
0
0
0
0
0
0
0
0
0
0
0
0
0
0
0
0
1
1
0
0
0
0
0
0
0
0
0
0
0
0
0
0
0
0
0
0
0
0
0
0
0
0
0
0
0
0
0
0
0
0
0
1
1
0
0
0
0
0
0
0
0
0
0
0
0
0
0
0
0
0
0
0
0
1
1
0
0
0
0
0
0
0
0
0
0
0
0
0
0
0
0
0
0
0
0
0
0
0
0
0
0
0
0
0
0
0
0
0
1
1
0
0
0
0
0
0
0
0
0
0
0
0
0
0
0
0
0
0
0
0
0
1
1
0
0
0
0
0
0
0
0
0
0
0
0
0
0
0
0
0
0
0
0
0
0
0
0
0
0
0
0
0
0
0
0
0
0
1
1
0
0
0
0
0
0
0
0
0
0
0
0
0
0
0
0
0
0
0
0
0
0
0
0
0
0
0
0
0
0
0
0
0
0
0
0
0
0
0
0
0
0
0
0
0
0
0
0
0
0
0
0
0
0
0
0
0
1
1
0
0
0
0
0
0
0
0
0
0
0
0
0
0
0
0
0
0
0
0
0
0
0
0
0
0
0
0
0
0
0
0
0
0
0
0
0
0
0
0
0
0
0
0
0
0
0
0
0
0
0
0
0
0
0
0
0
1
1
0
0
0
0
0
0
0
0
0
0
0
0
0
0
0
0
0
0
0
0
0
0
0
0
0
0
0
0
0
0
0
0
0
0
0
0
0
0
0
0
0
0
0
0
0
0
0
0
0
0
0
0
0
0
0
0
0
1
1
0
0
0
0
0
0
0
0
0
0
0
0
0
0
0
0
0
0
0
0
0
0
0
0
0
0
0
0
0
0
0
0
0
0
0
0
0
0
0
0
0
0
0
0
0
0
0
0
0
0
0
0
0
0
0
0
0
1
1
0
0
0
0
0
0
0
0
0
0
0
0
0
0
0
0
0
0
0
0
0
0
0
0
0
0
0
0
0
0
0
0
0
0
0
0
0
0
0
0
0
0
0
0
0
0
0
0
0
0
0
0
0
0
0
0
0
1
1
0
0
0
0
0
0
0
0
0
0
0
0
0
0
0
0
0
0
0
0
0
0
0
0
0
0
0
0
0
0
0
0
0
0
0
0
0
0
0
0
0
0
0
0
0
0
0
0
0
0
0
0
0
0
0
0
0
1
1
0
0
0
0
0
0
0
0
0
0
0
0
0
0
0
0
0
0
0
0
0
0
0
0
0
0
0
0
0
0
0
0
0
0
0
0
0
0
0
0
0
0
0
0
0
0
0
0
0
0
0
0
0
0
0
0
0
1
1
0
0
0
0
0
0
0
0
0
0
0
0
0
0
0
0
0
0
0
0
0
0
0
0
0
0
0
0
0
0
0
0
0
0
0
0
0
0
0
0
0
0
0
0
0
0
0
0
0
0
0
0
0
0
0
0
0
1
1
0
0
0
0
0
0
0
0
0
0
0
0
0
0
0
0
0
0
0
0
0
0
0
0
0
0
0
0
0
0
0
0
0
0
0
0
0
0
0
0
0
0
0
0
0
0
0
0
0
0
0
0
0
0
0
0
0
1
1
0
0
0
0
0
0
0
0
0
0
0
0
0
0
0
0
0
0
0
0
0
0
0
0
0
0
0
0
0
0
0
0
0
0
0
0
0
0
0
0
0
0
0
0
0
0
0
0
0
0
0
0
0
0
0
0
0
1
1
0
0
0
0
0
0
0
0
0
0
0
0
0
0
0
0
0
0
0
0
0
1
1
0
0
0
0
0
0
0
0
0
0
0
0
0
0
0
0
0
0
0
0
0
0
0
0
0
0
0
0
0
0
0
0
0
0
1
1
0
0
0
0
0
0
0
0
0
0
0
0
0
0
0
0
0
0
0
0
1
1
0
0
0
0
0
0
0
0
0
0
0
0
0
0
0
0
0
0
0
0
0
0
0
0
0
0
0
0
0
0
0
0
0
1
1
0
0
0
0
0
0
0
0
0
0
0
0
0
0
0
0
0
0
0
0
1
1
0
0
0
0
0
0
0
0
0
0
0
0
0
0
0
0
0
0
0
0
0
0
0
0
0
0
0
0
0
0
0
0
0
1
1
0
0
0
0
0
0
0
0
0
0
0
0
0
0
0
0
0
0
0
0
1
1
0
0
0
0
0
0
0
0
0
0
0
0
0
0
0
0
0
0
0
0
0
0
0
0
0
0
0
0
0
0
0
0
0
1
1
0
0
0
0
0
0
0
0
0
0
0
0
0
0
0
0
0
0
0
0
1
1
0
0
0
0
0
0
0
0
0
0
0
0
0
0
0
0
0
0
0
0
0
0
0
0
0
0
0
0
0
0
0
0
0
1
1
0
0
0
0
0
0
0
0
0
0
0
0
0
0
0
0
0
0
0
0
1
1
0
0
0
0
0
0
0
0
0
0
0
0
0
0
0
0
0
0
0
0
0
0
0
0
0
0
0
0
0
0
0
0
0
1
1
0
0
0
0
0
0
0
0
0
0
0
0
0
0
0
0
0
0
0
0
1
1
0
0
0
0
0
0
0
0
0
0
0
0
0
0
0
0
0
0
0
0
0
0
0
0
0
0
0
0
0
0
0
0
0
1
1
0
0
0
0
0
0
0
0
0
0
0
0
0
0
0
0
0
0
0
0
1
1
0
0
0
0
0
0
0
0
0
0
0
0
0
0
0
0
0
0
0
0
0
0
0
0
0
0
0
0
0
0
0
0
0
1
1
0
0
0
0
0
0
0
0
0
0
0
0
0
0
0
0
0
0
0
0
1
1
0
0
0
0
0
0
0
0
0
0
0
0
0
0
0
0
0
0
0
0
0
0
0
0
0
0
0
0
0
0
0
0
0
1
1
0
0
0
0
0
0
0
0
0
0
0
0
0
0
0
0
0
0
0
0
1
1
0
0
0
0
0
0
0
0
0
0
0
0
0
0
0
0
0
0
0
0
0
0
0
0
0
0
0
0
0
0
0
0
0
1
1
0
0
0
0
0
0
0
0
0
0
0
0
0
0
0
0
0
0
0
0
1
1
0
0
0
0
0
0
0
0
0
0
0
0
0
0
0
0
0
0
0
0
0
0
0
0
0
0
0
0
0
0
0
0
0
1
1
0
0
0
0
0
0
0
0
0
0
0
0
0
0
0
0
0
0
0
0
1
1
0
0
0
0
0
0
0
0
0
0
0
0
0
0
0
0
0
0
0
0
0
0
0
0
0
0
0
0
0
0
0
0
0
1
1
0
0
0
0
0
0
0
0
0
0
0
0
0
0
0
0
0
0
0
0
1
1
0
0
0
0
0
0
0
0
0
0
0
0
0
0
0
0
0
0
0
0
0
0
0
0
0
0
0
0
0
0
0
0
0
1
1
0
0
0
0
0
0
0
0
0
0
0
0
0
0
0
0
0
0
0
0
1
1
0
0
0
0
0
0
0
0
0
0
0
0
0
0
0
0
0
0
0
0
0
0
0
0
0
0
0
0
0
0
0
0
0
1
1
0
0
0
0
0
0
0
0
0
0
0
0
0
0
0
0
0
0
0
0
1
1
0
0
0
0
0
0
0
0
0
0
0
0
0
0
0
0
0
0
0
0
0
0
0
0
0
0
0
0
0
0
0
0
0
1
1
0
0
0
0
0
0
0
0
0
0
0
0
0
0
0
0
0
0
0
0
1
1
0
0
0
0
0
0
0
0
0
0
0
0
0
0
0
0
0
0
0
0
0
0
0
0
0
0
0
0
0
0
0
0
0
1
1
0
0
0
0
0
0
0
0
0
0
0
0
0
0
0
0
0
0
0
0
1
1
0
0
0
0
0
0
0
0
0
0
0
0
0
0
0
0
0
0
0
0
0
0
0
0
0
0
0
0
0
0
0
0
0
1
1
0
0
0
0
0
0
0
0
0
0
0
0
0
0
0
0
0
0
0
0
1
1
0
0
0
0
0
0
0
0
0
0
0
0
0
0
0
0
0
0
0
0
0
0
0
0
0
0
0
0
0
0
0
0
0
1
1
0
0
0
0
0
0
0
0
0
0
0
0
0
0
0
0
0
0
0
0
1
1
0
0
0
0
0
0
0
0
0
0
0
0
0
0
0
0
0
0
0
0
0
0
0
0
0
0
0
0
0
0
0
0
0
1
1
0
0
0
0
0
0
0
0
0
0
0
0
0
0
0
0
0
0
0
0
1
1
0
0
0
0
0
0
0
0
0
0
0
0
0
0
0
0
0
0
0
0
0
0
0
0
0
0
0
0
0
0
0
0
0
1
1
0
0
0
0
0
0
0
0
0
0
0
0
0
0
0
0
0
0
0
0
1
1
0
0
0
0
0
0
0
0
0
0
0
0
0
0
0
0
0
0
0
0
0
0
0
0
0
0
0
0
0
0
0
0
0
1
1
0
0
0
0
0
0
0
0
0
0
0
0
0
0
0
0
0
0
0
0
1
1
0
0
0
0
0
0
0
0
0
0
0
0
0
0
0
0
0
0
0
0
0
0
0
0
0
0
0
0
0
0
0
0
0
1
1
1
1
1
1
1
1
1
1
1
1
1
1
1
1
1
1
1
1
1
1
1
1
1
1
1
1
1
1
1
1
1
1
1
1
1
1
1
1
1
1
1
1
1
1
1
1
1
1
1
1
1
1
1
1
1
1
				</DataArray>
				<DataArray type="Float64" Name="h" NumberOfComponents="1" Format="ascii">
1.4901247803
1.4873576181
1.4864997560
1.4848461677
1.4825113024
1.4796439528
1.4764070844
1.4729594185
1.4694415960
1.4659694435
1.4626325501
1.4594964650
1.4566073905
1.4539967067
1.4516850767
1.4496861299
1.4480087627
1.4466591237
1.4456420701
1.4449614184
1.4446201818
1.4446201818
1.0189555130
1.0223062236
1.0218788902
1.0210378844
1.0198119574
1.0182462563
1.0164032323
1.0143620080
1.0122153468
1.0100640325
1.0080079822
1.0061355265
1.0045132067
1.0031783734
1.0021372583
1.0013688542
1.0008330225
1.0004805308
1.0002621340
1.0001348967
1.0000653206
1.0000296845
1.0000126247
1.0000050097
1.0000018490
1.0000006324
1.0000001997
1.0000000580
1.0000000154
1.0000000037
1.0000000008
1.0000000002
1.0000000000
1.0000000000
1.0000000000
1.4873576181
1.4841353154
1.4832670707
1.4815925577
1.4792266218
1.4763198015
1.4730385692
1.4695465164
1.4659894269
1.4624873440
1.4591322756
1.4559901460
1.4531058149
1.4505082012
1.4482150516
1.4462371325
1.4445808162
1.4432502169
1.4422486647
1.4415788984
1.4412432625
1.4446201818
1.0223062236
1.0259972463
1.0255375675
1.0246304402
1.0233021030
1.0215946806
1.0195679566
1.0172998621
1.0148847062
1.0124287844
1.0100421683
1.0078276505
1.0058689953
1.0042208834
1.0029040238
1.0019067094
1.0011918893
1.0007077191
1.0003982751
1.0002119341
1.0001063842
1.0000502513
1.0000222780
1.0000092440
1.0000035796
1.0000012894
1.0000004306
1.0000001328
1.0000000376
1.0000000098
1.0000000023
1.0000000005
1.0000000001
1.0000000000
1.0000000000
1.4858564246
1.4825540918
1.4817337884
1.4801482820
1.4779005185
1.4751271042
1.4719816409
1.4686181300
1.4651768581
1.4617759908
1.4585080684
1.4554406499
1.4526203542
1.4500774918
1.4478307408
1.4458914473
1.4442663804
1.4429600120
1.4419760621
1.4413176906
1.4409876308
1.4442800182
1.0250086800
1.0286987549
1.0282449179
1.0273462055
1.0260226789
1.0243077883
1.0222507364
1.0199180475
1.0173935646
1.0147765301
1.0121759904
1.0097015508
1.0074516874
1.0055014137
1.0038933196
1.0026346492
1.0017009757
1.0010454879
1.0006105144
1.0003380062
1.0001770388
1.0000875309
1.0000407538
1.0000178233
1.0000073023
1.0000027947
1.0000009959
1.0000003293
1.0000001007
1.0000000283
1.0000000073
1.0000000017
1.0000000004
1.0000000001
1.0000000000
1.4829226263
1.4794720094
1.4787418156
1.4773242117
1.4753006577
1.4727822439
1.4698984842
1.4667848330
1.4635703310
1.4603686662
1.4572726838
1.4543526785
1.4516585420
1.4492233323
1.4470676498
1.4452040704
1.4436401987
1.4423812365
1.4414316865
1.4407955553
1.4404763672
1.4436025401
1.0300872135
1.0337354683
1.0332974783
1.0324246771
1.0311262420
1.0294202360
1.0273366625
1.0249204330
1.0222339916
1.0193595652
1.0163986329
1.0134671248
1.0106856507
1.0081647477
1.0059892394
1.0042064622
1.0028219590
1.0018044918
1.0010977068
1.0006340276
1.0003470223
1.0001796134
1.0000877177
1.0000403246
1.0000174062
1.0000070359
1.0000026555
1.0000009329
1.0000003040
1.0000000916
1.0000000254
1.0000000064
1.0000000015
1.0000000004
1.0000000001
1.4786830476
1.4750370295
1.4744293518
1.4732413376
1.4715271488
1.4693647041
1.4668511035
1.4640955555
1.4612098534
1.4582994614
1.4554559809
1.4527525402
1.4502432972
1.4479652911
1.4459421250
1.4441883966
1.4427130957
1.4415225886
1.4406225875
1.4400184054
1.4397147995
1.4425990259
1.0369433459
1.0404562180
1.0400491479
1.0392311040
1.0379981543
1.0363498214
1.0342923143
1.0318421371
1.0290306937
1.0259107578
1.0225623707
1.0190954822
1.0156463023
1.0123638889
1.0093889858
1.0068307698
1.0047489068
1.0031482232
1.0019865486
1.0011911255
1.0006774790
1.0003648707
1.0001857102
1.0000891378
1.0000402568
1.0000170649
1.0000067719
1.0000025087
1.0000008649
1.0000002766
1.0000000817
1.0000000222
1.0000000056
1.0000000015
1.0000000005
1.4733038008
1.4694414679
1.4689776853
1.4680612826
1.4667173014
1.4649871649
1.4629306723
1.4606248742
1.4581583889
1.4556235928
1.4531077470
1.4506855756
1.4484156878
1.4463400585
1.4444864437
1.4428724683
1.4415092735
1.4404049883
1.4395670812
1.4390027325
1.4387184724
1.4412944827
1.0448218752
1.0480748232
1.0477158700
1.0469867917
1.0458708449
1.0443499059
1.0424071165
1.0400296539
1.0372133203
1.0339712087
1.0303449931
1.0264163042
1.0223138823
1.0182089151
1.0142954667
1.0107585716
1.0077389367
1.0053087564
1.0034668598
1.0021521805
1.0012682874
1.0007084832
1.0003745477
1.0001870487
1.0000880662
1.0000390044
1.0000162118
1.0000063076
1.0000022909
1.0000007744
1.0000002428
1.0000000704
1.0000000190
1.0000000056
1.0000000021
1.4669704958
1.4628976616
1.4625894293
1.4619690219
1.4610336812
1.4597886664
1.4582548203
1.4564731830
1.4545038465
1.4524205293
1.4503016453
1.4482208118
1.4462402236
1.4444072685
1.4427550056
1.4413053627
1.4400727480
1.4390679673
1.4383010465
1.4377818107
1.4375192937
1.4397341744
1.0529619032
1.0558383729
1.0555425390
1.0549326626
1.0539809126
1.0526553210
1.0509213497
1.0487424257
1.0460821662
1.0429119169
1.0392237449
1.0350480696
1.0304728971
1.0256550012
1.0208138044
1.0162023711
1.0120591073
1.0085586941
1.0057817127
1.0037127342
1.0022638938
1.0013094543
1.0007175649
1.0003719863
1.0001821194
1.0000840437
1.0000364788
1.0000148584
1.0000056650
1.0000020163
1.0000006680
1.0000002054
1.0000000591
1.0000000189
1.0000000076
1.4598718457
1.4556179398
1.4554700814
1.4551573425
1.4546522720
1.4539266421
1.4529631204
1.4517648361
1.4503589954
1.4487949655
1.4471368145
1.4454530084
1.4438073017
1.4422523220
1.4408274815
1.4395605814
1.4384708830
1.4375732612
1.4368815186
1.4364092632
1.4361690756
1.4379872053
1.0607338742
1.0631562006
1.0629337258
1.0624631800
1.0617070771
1.0606240387
1.0591693042
1.0572923215
1.0549350700
1.0520355597
1.0485378781
1.0444102188
1.0396715316
1.0344193413
1.0288468622
1.0232344828
1.0179055710
1.0131582595
1.0091999473
1.0061115911
1.0038542646
1.0023060488
1.0013079733
1.0007025545
1.0003568964
1.0001711891
1.0000773862
1.0000329013
1.0000131261
1.0000049018
1.0000017090
1.0000005552
1.0000001698
1.0000000584
1.0000000251
1.4521878777
1.4478008011
1.4478145770
1.4478142217
1.4477511742
1.4475673271
1.4472093051
1.4466418989
1.4458562033
1.4448719426
1.4437329224
1.4424974466
1.4412277563
1.4399808324
1.4388032965
1.4377306578
1.4367891454
1.4359996921
1.4353816523
1.4349540581
1.4347345341
1.4361410442
1.0677156175
1.0696541154
1.0695109896
1.0691899084
1.0686433732
1.0678235153
1.0666818839
1.0651640322
1.0632036672
1.0607209461
1.0576264392
1.0538334556
1.0492833989
1.0439823438
1.0380407946
1.0316985443
1.0253094793
1.0192780191
1.0139652008
1.0096043218
1.0062656067
1.0038761450
1.0022732859
1.0012632765
1.0006646091
1.0003306108
1.0001552627
1.0000687130
1.0000285986
1.0000111689
1.0000040836
1.0000013957
1.0000004518
1.0000001662
1.0000000756
1.4440861403
1.4396269669
1.4398027798
1.4401174482
1.4405044098
1.4408790569
1.4411543830
1.4412571931
1.4411402282
1.4407890291
1.4402214204
1.4394801558
1.4386222076
1.4377074205
1.4367902302
1.4359158529
1.4351200658
1.4344324384
1.4338802550
1.4334902103
1.4332870644
1.4342901492
1.0736890257
1.0751530308
1.0750937420
1.0749270907
1.0745926296
1.0740363438
1.0732099091
1.0720623403
1.0705305223
1.0685329360
1.0659671343
1.0627131989
1.0586500736
1.0536886685
1.0478219219
1.0411804106
1.0340630675
1.0269122067
1.0202225684
1.0144145369
1.0097348481
1.0062278217
1.0037747597
1.0021677629
1.0011791904
1.0006071249
1.0002955161
1.0001357842
1.0000587901
1.0000239374
1.0000091472
1.0000032776
1.0000011186
1.0000004377
1.0000002097
1.4357230495
1.4312617337
1.4316008102
1.4322341548
1.4330792898
1.4340274861
1.4349599483
1.4357659387
1.4363582925
1.4366847848
1.4367323422
1.4365231386
1.4361050263
1.4355389017
1.4348873575
1.4342072932
1.4335468475
1.4329472073
1.4324464591
1.4320817922
1.4318879029
1.4325191551
1.0785876348
1.0796105804
1.0796414609
1.0796351560
1.0795125653
1.0792113614
1.0786843070
1.0778875776
1.0767682785
1.0752551015
1.0732510485
1.0706285732
1.0672338183
1.0629067700
1.0575250771
1.0510726256
1.0437115560
1.0358182690
1.0279404329
1.0206663870
1.0144647919
1.0095758085
1.0059983258
1.0035574557
1.0019983221
1.0010630229
1.0005351482
1.0002546729
1.0001143987
1.0000484206
1.0000192774
1.0000072173
1.0000025879
1.0000010720
1.0000005383
1.4272467349
1.4228591474
1.4233640988
1.4243217982
1.4256346641
1.4271708084
1.4287803932
1.4303151927
1.4316470527
1.4326835489
1.4333771835
1.4337256643
1.4337644707
1.4335537948
1.4331644669
1.4326667430
1.4321237681
1.4315913404
1.4311214301
1.4307650309
1.4305703864
1.4308824768
1.0824366297
1.0830640917
1.0831962417
1.0833621949
1.0834557428
1.0834022225
1.0831544813
1.0826766911
1.0819289455
1.0808562319
1.0793788476
1.0773821008
1.0747100585
1.0711698449
1.0665576692
1.0607187044
1.0536367077
1.0455251619
1.0368627770
1.0283168214
1.0205651340
1.0141026904
1.0091343666
1.0055936644
1.0032419284
1.0017792597
1.0009246467
1.0004547240
1.0002113826
1.0000927486
1.0000383558
1.0000149565
1.0000056155
1.0000024511
1.0000012842
1.4188024703
1.4145683956
1.4152427115
1.4165314386
1.4183213736
1.4204569034
1.4227566495
1.4250344549
1.4271206101
1.4288815122
1.4302336706
1.4311482859
1.4316464217
1.4317861831
1.4316463993
1.4313116799
1.4308621161
1.4303705817
1.4299057893
1.4295361102
1.4293278759
1.4293893095
1.0853054322
1.0855884059
1.0858401049
1.0861996796
1.0865225366
1.0867165251
1.0867327194
1.0865426558
1.0861194553
1.0854258713
1.0844044271
1.0829649871
1.0809720398
1.0782358359
1.0745177487
1.0695672247
1.0632014703
1.0554219954
1.0465238694
1.0371154501
1.0279934235
1.0199081833
1.0133449374
1.0084405690
1.0050452400
1.0028537195
1.0015284448
1.0007751707
1.0003720242
1.0001687695
1.0000722908
1.0000292713
1.0000114703
1.0000052524
1.0000028606
1.4105364437
1.4065376803
1.4073842965
1.4090089042
1.4112809390
1.4140191541
1.4170091549
1.4200262574
1.4228595514
1.4253351799
1.4273345182
1.4288024978
1.4297452459
1.4302178607
1.4303064254
1.4301097961
1.4297256759
1.4292453577
1.4287564297
1.4283482097
1.4281107791
1.4279980660
1.0872792668
1.0872705092
1.0876696071
1.0882561414
1.0888328527
1.0892844576
1.0895583802
1.0896325557
1.0894920663
1.0891163788
1.0884703765
1.0874923534
1.0860790002
1.0840685587
1.0812292422
1.0772699344
1.0718920932
1.0648972622
1.0563352190
1.0466209105
1.0365209159
1.0269591503
1.0187219484
1.0122387699
1.0075451114
1.0043953914
1.0024231140
1.0012650659
1.0006254422
1.0002926258
1.0001294746
1.0000542806
1.0000221298
1.0000105863
1.0000059716
1.4025952611
1.3989130196
1.3999321613
1.4018915154
1.4046405240
1.4079695860
1.4116295475
1.4153572209
1.4189024530
1.4220544152
1.4246628220
1.4266488254
1.4280044608
1.4287811253
1.4290705946
1.4289843695
1.4286366984
1.4281370275
1.4275927650
1.4271174839
1.4268321528
1.4266206455
1.0884436951
1.0881944656
1.0887814406
1.0896427043
1.0905109694
1.0912423362
1.0917791606
1.0921050416
1.0922158750
1.0921059953
1.0917604728
1.0911449699
1.0901915253
1.0887787754
1.0867098061
1.0837010736
1.0794019016
1.0734699922
1.0657162277
1.0562816555
1.0457479608
1.0350612039
1.0252469331
1.0170728114
1.0108599551
1.0065139915
1.0036927536
1.0019816074
1.0010072320
1.0004848918
1.0002210415
1.0000956813
1.0000404597
1.0000201385
1.0000117261
1.3951235634
1.3918346395
1.3930211991
1.3953032428
1.3985073271
1.4023929007
1.4066751482
1.4110540734
1.4152445522
1.4190046258
1.4221581450
1.4246066351
1.4263296169
1.4273738198
1.4278340038
1.4278309909
1.4274925612
1.4269441559
1.4263123931
1.4257378938
1.4253816928
1.4251370665
1.0888705002
1.0884267539
1.0892591159
1.0904602211
1.0916728004
1.0927199407
1.0935381661
1.0941162455
1.0944599907
1.0945769204
1.0944696220
1.0941279198
1.0935172149
1.0925594760
1.0911066008
1.0889150680
1.0856376977
1.0808598681
1.0742108239
1.0655507425
1.0551709181
1.0438678702
1.0327654914
1.0229386306
1.0150647324
1.0093048104
1.0054210461
1.0029863909
1.0015578895
1.0007700286
1.0003607681
1.0001608097
1.0000703166
1.0000362764
1.0000217345
1.3882569914
1.3854286921
1.3867696253
1.3893466853
1.3929613656
1.3973409792
1.4021663065
1.4071048982
1.4118436165
1.4161174377
1.4197315996
1.4225727629
1.4246093511
1.4258816525
1.4264833868
1.4265397083
1.4261870604
1.4255627816
1.4248102253
1.4240989623
1.4236420526
1.4234143678
1.0886006994
1.0879991026
1.0891580911
1.0907852404
1.0924126197
1.0938283728
1.0949629575
1.0958095835
1.0963831400
1.0967031335
1.0967875124
1.0966468477
1.0962758426
1.0956372542
1.0946352823
1.0930831801
1.0906757066
1.0869900630
1.0815515910
1.0739915577
1.0642811969
1.0529332942
1.0409909847
1.0297216119
1.0201658500
1.0128302747
1.0076801944
1.0043394683
1.0023198355
1.0011749903
1.0005644807
1.0002584338
1.0001165085
1.0000620699
1.0000381506
1.3821110464
1.3797955075
1.3812679239
1.3840935791
1.3880486497
1.3928299262
1.3980883386
1.4034664989
1.4086325867
1.4133078163
1.4172862171
1.4204437530
1.4227382080
1.4242005595
1.4249182866
1.4250145916
1.4246282235
1.4239025057
1.4229928301
1.4220979997
1.4214986157
1.4213202207
1.0876219944
1.0868865507
1.0884882605
1.0906545686
1.0927899292
1.0946497389
1.0961578665
1.0973099885
1.0981288409
1.0986453181
1.0988917025
1.0988969336
1.0986810370
1.0982428661
1.0975363342
1.0964365339
1.0947012782
1.0919457875
1.0876645528
1.0813401685
1.0726612999
1.0617953339
1.0495439953
1.0371966955
1.0260837507
1.0171018100
1.0105180597
1.0060916284
1.0033331491
1.0017269780
1.0008489280
1.0003982207
1.0001845598
1.0001011771
1.0000636154
1.3767703304
1.3749991867
1.3765698225
1.3795785735
1.3837791152
1.3888432004
1.3944002634
1.4000783266
1.4055375354
1.4104944615
1.4147381455
1.4181365070
1.4206358136
1.4222538925
1.4230660701
1.4231866098
1.4227492257
1.4218956568
1.4207858173
1.4196448674
1.4188403104
1.4187275969
1.0858328308
1.0849727584
1.0871880285
1.0900443832
1.0928146122
1.0952286381
1.0972005252
1.0987235302
1.0998262718
1.1005515107
1.1009468092
1.1010592261
1.1009317536
1.1005948798
1.1000471357
1.0992234548
1.0979525398
1.0959149161
1.0926297211
1.0875117680
1.0800432107
1.0700576197
1.0580159274
1.0450535370
1.0326491455
1.0220656288
1.0139448907
1.0082752713
1.0046300595
1.0024503161
1.0012300768
1.0005898383
1.0002802396
1.0001575570
1.0001010672
1.3722780639
1.3710587190
1.3726853614
1.3757959888
1.3801283120
1.3853386768
1.3910467152
1.3968778693
1.4024946876
1.4076166388
1.4120318906
1.4156011253
1.4182570587
1.4200000704
1.4208873744
1.4210172563
1.4205105561
1.4194982670
1.4181334679
1.4166585588
1.4155495138
1.4155074142
1.0829817132
1.0819907831
1.0850834649
1.0888420200
1.0924332876
1.0955714206
1.0981495664
1.1001489309
1.1016021496
1.1025672620
1.1031118709
1.1033045672
1.1032119616
1.1028936061
1.1023875231
1.1016831348
1.1006793030
1.0991339094
1.0966260476
1.0925682327
1.0863212546
1.0774464243
1.0660382881
1.0529434687
1.0396180753
1.0275978611
1.0179227217
1.0108952122
1.0062287241
1.0033626661
1.0017209248
1.0008417257
1.0004088604
1.0002350002
1.0001534030
1.3686294411
1.3679441222
1.3695790791
1.3727016011
1.3770434449
1.3822585033
1.3879702169
1.3938134213
1.3994618219
1.4046428535
1.4091456103
1.4128228153
1.4155910556
1.4174292207
1.4183710713
1.4184923505
1.4178929971
1.4166823772
1.4149899610
1.4130543162
1.4114765302
1.4115042297
1.0785580701
1.0774155145
1.0818242005
1.0868159824
1.0915323606
1.0956713104
1.0990789818
1.1017119135
1.1036101624
1.1048584011
1.1055564602
1.1058037647
1.1056955319
1.1053207398
1.1047531556
1.1040303653
1.1031158328
1.1018462429
1.0998785592
1.0966678399
1.0915279791
1.0838300819
1.0733363483
1.0605353692
1.0467048173
1.0335130556
1.0223610672
1.0139214469
1.0081272457
1.0044710173
1.0023290477
1.0011596483
1.0005744104
1.0003365211
1.0002230182
1.3657724284
1.3655804456
1.3671754662
1.3702203636
1.3744531536
1.3795397345
1.3851208837
1.3908510998
1.3964213698
1.4015695562
1.4060856439
1.4098129553
1.4126497114
1.4145503271
1.4155210207
1.4156092952
1.4148860416
1.4134259364
1.4113102824
1.4087305025
1.4064020291
1.4064985977
1.0715711671
1.0702443740
1.0767835488
1.0836109295
1.0899994304
1.0955945857
1.1001598881
1.1036296937
1.1060759960
1.1076392833
1.1084761976
1.1087341499
1.1085467092
1.1080354594
1.1073076348
1.1064425804
1.1054601859
1.1042705267
1.1026133120
1.1000116390
1.0957876065
1.0892016167
1.0797511060
1.0675610187
1.0536221685
1.0395843057
1.0271203310
1.0172852303
1.0102986330
1.0057677648
1.0030540300
1.0015451278
1.0007785842
1.0004636625
1.0003112677
1.3636146725
1.3638576210
1.3653691796
1.3682567975
1.3722771236
1.3771216564
1.3824599029
1.3879733393
1.3933734079
1.3984086689
1.4028689643
1.4065870594
1.4094419866
1.4113629337
1.4123270161
1.4123498848
1.4114658912
1.4096994185
1.4070476516
1.4035703505
1.3999924574
1.4001621892
1.0599835885
1.0584310422
1.0689145789
1.0788766358
1.0879560693
1.0956990060
1.1018197456
1.1063088404
1.1093474279
1.1111907165
1.1120912333
1.1122676253
1.1119035476
1.1111565972
1.1101647898
1.1090419276
1.1078541071
1.1065747949
1.1050221615
1.1027973622
1.0992654934
1.0936405253
1.0852317236
1.0738399113
1.0601189303
1.0455715082
1.0320240778
1.0208805627
1.0126881995
1.0072276966
1.0038852008
1.0019939754
1.0010198528
1.0006158210
1.0004179339
1.3620378747
1.3626467945
1.3640405196
1.3667085353
1.3704364060
1.3749516385
1.3799600003
1.3851734250
1.3903238294
1.3951686440
1.3994956315
1.4031261996
1.4059211712
1.4077874122
1.4086773476
1.4085796532
1.4074948705
1.4053898334
1.4021357296
1.3975045648
1.3918219326
1.3920818043
1.0387166465
1.0368791122
1.0566752785
1.0729040448
1.0864101957
1.0970862687
1.1049947286
1.1104547063
1.1139166157
1.1158355063
1.1166007960
1.1165193239
1.1158288250
1.1147196051
1.1133527574
1.1118656851
1.1103575705
1.1088516444
1.1072339419
1.1051824403
1.1021227547
1.0972675197
1.0898071052
1.0792802326
1.0660045229
1.0512502696
1.0368780223
1.0245718134
1.0152146273
1.0088067797
1.0048001968
1.0024952185
1.0012927484
1.0007897221
1.0005408095
1.3609173876
1.3618203029
1.3630739433
1.3654821378
1.3688657843
1.3729939494
1.3776111691
1.3824587092
1.3872848995
1.3918502901
1.3959342573
1.3993406867
1.4019067592
1.4035136175
1.4040907915
1.4036145320
1.4020941934
1.3995337462
1.3958423635
1.3906224600
1.3828887508
1.3832882252
0.9913345099
0.9890564830
1.0389627396
1.0687479608
1.0887238300
1.1023473482
1.1113987123
1.1170814686
1.1203121814
1.1217924599
1.1220395724
1.1214238337
1.1202112051
1.1186016799
1.1167594824
1.1148276411
1.1129212897
1.1110969234
1.1092940004
1.1072589059
1.1044826516
1.1002040573
1.0935491217
1.0838607787
1.0711555348
1.0564329825
1.0414902773
1.0282057088
1.0177747160
1.0104431690
1.0057646994
1.0030306424
1.0015875019
1.0009791456
1.0006754772
1.3601408285
1.3612693315
1.3623745362
1.3645078920
1.3675276532
1.3712450058
1.3754411516
1.3798816219
1.3843232259
1.3885184978
1.3922224076
1.3951962163
1.3972108556
1.3980457684
1.3974681036
1.3951817084
1.3907160592
1.3831853536
1.3707619923
1.3494102536
1.3094798775
1.2268237796
1.1196653574
1.1324482943
1.0718431815
1.0779461058
1.0925986333
1.1037922547
1.1128557008
1.1197505912
1.1245106655
1.1273634359
1.1286527655
1.1287404976
1.1279414846
1.1265043923
1.1246193717
1.1224365708
1.1200877100
1.1176980463
1.1153809193
1.1132105716
1.1111657609
1.1090504352
1.1064185744
1.1025494952
1.0965436605
1.0876079344
1.0755101310
1.0609806314
1.0456897574
1.0316262969
1.0202519924
1.0120611190
1.0067339414
1.0035753236
1.0018902487
1.0011750422
1.0008153933
1.3596200360
1.3609139579
1.3618768384
1.3637470662
1.3664189210
1.3697433224
1.3735349322
1.3775802577
1.3816422613
1.3854653261
1.3887836959
1.3913263037
1.3928203885
1.3929904492
1.3915377055
1.3880945943
1.3821357341
1.3728022456
1.3585705203
1.3365822305
1.3011875145
1.2418903526
1.1164670666
1.1298014930
1.1004403263
1.1005003798
1.1083191326
1.1162900266
1.1231822186
1.1284489494
1.1319603051
1.1338414910
1.1343542429
1.1337993316
1.1324508897
1.1305320264
1.1282153769
1.1256367664
1.1229162682
1.1201722505
1.1175198353
1.1150488292
1.1127709402
1.1105397708
1.1079674262
1.1043794453
1.0988760364
1.0905763094
1.0790559879
1.0648050331
1.0493390120
1.0346895965
1.0225276352
1.0135774398
1.0076560660
1.0040993045
1.0021839107
1.0013661112
1.0009523241
1.3592879821
1.3606976054
1.3615363978
1.3631776460
1.3655475947
1.3685321437
1.3719752106
1.3756817883
1.3794212095
1.3829334911
1.3859404489
1.3881529823
1.3892772668
1.3890173473
1.3870599801
1.3830405858
1.3764793762
1.3666591002
1.3524184473
1.3317907060
1.3013494463
1.2559730380
1.1721165752
1.1578567095
1.1322785333
1.1247075942
1.1253022222
1.1286339233
1.1324756104
1.1357064910
1.1378440303
1.1387823118
1.1386258519
1.1375707480
1.1358253864
1.1335738039
1.1309648326
1.1281178273
1.1251406698
1.1221441146
1.1192428263
1.1165373428
1.1140645814
1.1117181055
1.1091594186
1.1057583281
1.1006280078
1.0928350828
1.0818155339
1.0678625896
1.0523389281
1.0372742404
1.0244910150
1.0149091197
1.0084767851
1.0045702116
1.0024496738
1.0015397876
1.0010770890
1.3590905381
1.3605765536
1.3613176733
1.3627790391
1.3649126081
1.3676323882
1.3708058972
1.3742534218
1.3777505632
1.3810360995
1.3838256788
1.3858215644
1.3867214259
1.3862243179
1.3840200742
1.3797636818
1.3730278393
1.3632120348
1.3494018474
1.3301521922
1.3031503103
1.2653083321
1.2039370859
1.1784436415
1.1540941993
1.1423880191
1.1384624742
1.1383838070
1.1397989272
1.1413429105
1.1423237163
1.1424701468
1.1417629208
1.1403104005
1.1382631622
1.1357694480
1.1329556111
1.1299252300
1.1267741993
1.1236049961
1.1205295820
1.1176544557
1.1150338712
1.1125907439
1.1100246268
1.1067421008
1.1018731840
1.0944555360
1.0838299562
1.0701424589
1.0546261819
1.0392869068
1.0260481725
1.0159809351
1.0091447248
1.0049565414
1.0026689293
1.0016835544
1.0011805363
1.3589846924
1.3605165236
1.3611909112
1.3625295793
1.3645023895
1.3670429503
1.3700353356
1.3733108046
1.3766499785
1.3797918944
1.3824496034
1.3843217201
1.3851030523
1.3844928072
1.3821867752
1.3778565437
1.3711109857
1.3614214839
1.3480136416
1.3297184959
1.3047798766
1.2710391699
1.2214830162
1.1916996716
1.1674860561
1.1535557958
1.1470461173
1.1448483973
1.1446826861
1.1450968329
1.1452911204
1.1448962884
1.1438138210
1.1420933599
1.1398457661
1.1371943610
1.1342497436
1.1311042963
1.1278451227
1.1245682052
1.1213826135
1.1183977296
1.1156784492
1.1131667557
1.1105878101
1.1073741497
1.1026701628
1.0954990790
1.0851432440
1.0716516928
1.0561650311
1.0406621936
1.0271267845
1.0167315891
1.0096164433
1.0052310217
1.0028253502
1.0017863667
1.0012545922
1.3589400604
1.3604932451
1.3611339074
1.3624106321
1.3643024452
1.3667530025
1.3696549033
1.3728451375
1.3761071046
1.3791803048
1.3817769291
1.3835943374
1.3843266033
1.3836737756
1.3813353132
1.3769913968
1.3702681828
1.3606696865
1.3474827221
1.3296558891
1.3056672489
1.2737426064
1.2292660493
1.1981001659
1.1738124481
1.1589030656
1.1512243982
1.1480266254
1.1470947981
1.1469526175
1.1467560063
1.1460912286
1.1448218756
1.1429686292
1.1406224325
1.1378940416
1.1348861294
1.1316854350
1.1283745509
1.1250460036
1.1218071363
1.1187684601