<VTKFile type="UnstructuredGrid" version="0.1">
	<UnstructuredGrid>
		<Piece NumberOfPoints="13548" NumberOfCells="3387">
			<CellData>
				<DataArray type="Int32" Name="ghost" NumberOfComponents="1" Format="ascii">
1
1
1
1
1
1
1
1
1
1
1
1
1
1
1
1
1
1
1
1
1
1
1
1
1
1
1
1
1
1
1
1
1
1
1
1
1
1
1
1
1
1
1
1
1
1
1
1
1
1
1
1
1
1
1
1
1
1
0
0
0
0
0
0
0
0
0
0
0
0
0
0
0
0
0
0
0
0
1
1
0
0
0
0
0
0
0
0
0
0
0
0
0
0
0
0
0
0
0
0
0
0
0
0
0
0
0
0
0
0
0
0
0
1
1
0
0
0
0
0
0
0
0
0
0
0
0
0
0
0
0
0
0
0
0
1
1
0
0
0
0
0
0
0
0
0
0
0
0
0
0
0
0
0
0
0
0
0
0
0
0
0
0
0
0
0
0
0
0
0
1
1
0
0
0
0
0
0
0
0
0
0
0
0
0
0
0
0
0
0
0
0
1
1
0
0
0
0
0
0
0
0
0
0
0
0
0
0
0
0
0
0
0
0
0
0
0
0
0
0
0
0
0
0
0
0
0
1
1
0
0
0
0
0
0
0
0
0
0
0
0
0
0
0
0
0
0
0
0
1
1
0
0
0
0
0
0
0
0
0
0
0
0
0
0
0
0
0
0
0
0
0
0
0
0
0
0
0
0
0
0
0
0
0
1
1
0
0
0
0
0
0
0
0
0
0
0
0
0
0
0
0
0
0
0
0
1
1
0
0
0
0
0
0
0
0
0
0
0
0
0
0
0
0
0
0
0
0
0
0
0
0
0
0
0
0
0
0
0
0
0
1
1
0
0
0
0
0
0
0
0
0
0
0
0
0
0
0
0
0
0
0
0
1
1
0
0
0
0
0
0
0
0
0
0
0
0
0
0
0
0
0
0
0
0
0
0
0
0
0
0
0
0
0
0
0
0
0
1
1
0
0
0
0
0
0
0
0
0
0
0
0
0
0
0
0
0
0
0
0
1
1
0
0
0
0
0
0
0
0
0
0
0
0
0
0
0
0
0
0
0
0
0
0
0
0
0
0
0
0
0
0
0
0
0
1
1
0
0
0
0
0
0
0
0
0
0
0
0
0
0
0
0
0
0
0
0
1
1
0
0
0
0
0
0
0
0
0
0
0
0
0
0
0
0
0
0
0
0
0
0
0
0
0
0
0
0
0
0
0
0
0
1
1
0
0
0
0
0
0
0
0
0
0
0
0
0
0
0
0
0
0
0
0
1
1
0
0
0
0
0
0
0
0
0
0
0
0
0
0
0
0
0
0
0
0
0
0
0
0
0
0
0
0
0
0
0
0
0
1
1
0
0
0
0
0
0
0
0
0
0
0
0
0
0
0
0
0
0
0
0
1
1
0
0
0
0
0
0
0
0
0
0
0
0
0
0
0
0
0
0
0
0
0
0
0
0
0
0
0
0
0
0
0
0
0
1
1
0
0
0
0
0
0
0
0
0
0
0
0
0
0
0
0
0
0
0
0
1
1
0
0
0
0
0
0
0
0
0
0
0
0
0
0
0
0
0
0
0
0
0
0
0
0
0
0
0
0
0
0
0
0
0
1
1
0
0
0
0
0
0
0
0
0
0
0
0
0
0
0
0
0
0
0
0
1
1
0
0
0
0
0
0
0
0
0
0
0
0
0
0
0
0
0
0
0
0
0
0
0
0
0
0
0
0
0
0
0
0
0
1
1
0
0
0
0
0
0
0
0
0
0
0
0
0
0
0
0
0
0
0
0
1
1
0
0
0
0
0
0
0
0
0
0
0
0
0
0
0
0
0
0
0
0
0
0
0
0
0
0
0
0
0
0
0
0
0
1
1
0
0
0
0
0
0
0
0
0
0
0
0
0
0
0
0
0
0
0
0
1
1
0
0
0
0
0
0
0
0
0
0
0
0
0
0
0
0
0
0
0
0
0
0
0
0
0
0
0
0
0
0
0
0
0
1
1
0
0
0
0
0
0
0
0
0
0
0
0
0
0
0
0
0
0
0
0
1
1
0
0
0
0
0
0
0
0
0
0
0
0
0
0
0
0
0
0
0
0
0
0
0
0
0
0
0
0
0
0
0
0
0
1
1
0
0
0
0
0
0
0
0
0
0
0
0
0
0
0
0
0
0
0
0
1
1
0
0
0
0
0
0
0
0
0
0
0
0
0
0
0
0
0
0
0
0
0
0
0
0
0
0
0
0
0
0
0
0
0
1
1
0
0
0
0
0
0
0
0
0
0
0
0
0
0
0
0
0
0
0
0
1
1
0
0
0
0
0
0
0
0
0
0
0
0
0
0
0
0
0
0
0
0
0
0
0
0
0
0
0
0
0
0
0
0
0
1
1
0
0
0
0
0
0
0
0
0
0
0
0
0
0
0
0
0
0
0
0
1
1
0
0
0
0
0
0
0
0
0
0
0
0
0
0
0
0
0
0
0
0
0
0
0
0
0
0
0
0
0
0
0
0
0
1
1
0
0
0
0
0
0
0
0
0
0
0
0
0
0
0
0
0
0
0
0
1
1
0
0
0
0
0
0
0
0
0
0
0
0
0
0
0
0
0
0
0
0
0
0
0
0
0
0
0
0
0
0
0
0
0
1
1
0
0
0
0
0
0
0
0
0
0
0
0
0
0
0
0
0
0
0
0
1
1
0
0
0
0
0
0
0
0
0
0
0
0
0
0
0
0
0
0
0
0
0
0
0
0
0
0
0
0
0
0
0
0
0
1
1
0
0
0
0
0
0
0
0
0
0
0
0
0
0
0
0
0
0
0
0
1
1
0
0
0
0
0
0
0
0
0
0
0
0
0
0
0
0
0
0
0
0
0
0
0
0
0
0
0
0
0
0
0
0
0
1
1
0
0
0
0
0
0
0
0
0
0
0
0
0
0
0
0
0
0
0
0
1
1
0
0
0
0
0
0
0
0
0
0
0
0
0
0
0
0
0
0
0
0
0
0
0
0
0
0
0
0
0
0
0
0
0
1
1
0
0
0
0
0
0
0
0
0
0
0
0
0
0
0
0
0
0
0
0
1
1
0
0
0
0
0
0
0
0
0
0
0
0
0
0
0
0
0
0
0
0
0
0
0
0
0
0
0
0
0
0
0
0
0
1
1
0
0
0
0
0
0
0
0
0
0
0
0
0
0
0
0
0
0
0
0
1
1
0
0
0
0
0
0
0
0
0
0
0
0
0
0
0
0
0
0
0
0
0
0
0
0
0
0
0
0
0
0
0
0
0
1
1
0
0
0
0
0
0
0
0
0
0
0
0
0
0
0
0
0
0
0
0
0
1
1
0
0
0
0
0
0
0
0
0
0
0
0
0
0
0
0
0
0
0
0
0
0
0
0
0
0
0
0
0
0
0
0
0
0
1
1
0
0
0
0
0
0
0
0
0
0
0
0
0
0
0
0
0
0
0
0
0
0
0
0
0
0
0
0
0
0
0
0
0
0
0
0
0
0
0
0
0
0
0
0
0
0
0
0
0
0
0
0
0
0
0
0
0
1
1
0
0
0
0
0
0
0
0
0
0
0
0
0
0
0
0
0
0
0
0
0
0
0
0
0
0
0
0
0
0
0
0
0
0
0
0
0
0
0
0
0
0
0
0
0
0
0
0
0
0
0
0
0
0
0
0
0
1
1
0
0
0
0
0
0
0
0
0
0
0
0
0
0
0
0
0
0
0
0
0
0
0
0
0
0
0
0
0
0
0
0
0
0
0
0
0
0
0
0
0
0
0
0
0
0
0
0
0
0
0
0
0
0
0
0
0
1
1
0
0
0
0
0
0
0
0
0
0
0
0
0
0
0
0
0
0
0
0
0
0
0
0
0
0
0
0
0
0
0
0
0
0
0
0
0
0
0
0
0
0
0
0
0
0
0
0
0
0
0
0
0
0
0
0
0
1
1
0
0
0
0
0
0
0
0
0
0
0
0
0
0
0
0
0
0
0
0
0
0
0
0
0
0
0
0
0
0
0
0
0
0
0
0
0
0
0
0
0
0
0
0
0
0
0
0
0
0
0
0
0
0
0
0
0
1
1
0
0
0
0
0
0
0
0
0
0
0
0
0
0
0
0
0
0
0
0
0
0
0
0
0
0
0
0
0
0
0
0
0
0
0
0
0
0
0
0
0
0
0
0
0
0
0
0
0
0
0
0
0
0
0
0
0
1
1
0
0
0
0
0
0
0
0
0
0
0
0
0
0
0
0
0
0
0
0
0
0
0
0
0
0
0
0
0
0
0
0
0
0
0
0
0
0
0
0
0
0
0
0
0
0
0
0
0
0
0
0
0
0
0
0
0
1
1
0
0
0
0
0
0
0
0
0
0
0
0
0
0
0
0
0
0
0
0
0
0
0
0
0
0
0
0
0
0
0
0
0
0
0
0
0
0
0
0
0
0
0
0
0
0
0
0
0
0
0
0
0
0
0
0
0
1
1
0
0
0
0
0
0
0
0
0
0
0
0
0
0
0
0
0
0
0
0
0
0
0
0
0
0
0
0
0
0
0
0
0
0
0
0
0
0
0
0
0
0
0
0
0
0
0
0
0
0
0
0
0
0
0
0
0
1
1
0
0
0
0
0
0
0
0
0
0
0
0
0
0
0
0
0
0
0
0
0
0
0
0
0
0
0
0
0
0
0
0
0
0
0
0
0
0
0
0
0
0
0
0
0
0
0
0
0
0
0
0
0
0
0
0
0
1
1
0
0
0
0
0
0
0
0
0
0
0
0
0
0
0
0
0
0
0
0
0
1
1
0
0
0
0
0
0
0
0
0
0
0
0
0
0
0
0
0
0
0
0
0
0
0
0
0
0
0
0
0
0
0
0
0
0
1
1
0
0
0
0
0
0
0
0
0
0
0
0
0
0
0
0
0
0
0
0
1
1
0
0
0
0
0
0
0
0
0
0
0
0
0
0
0
0
0
0
0
0
0
0
0
0
0
0
0
0
0
0
0
0
0
1
1
0
0
0
0
0
0
0
0
0
0
0
0
0
0
0
0
0
0
0
0
1
1
0
0
0
0
0
0
0
0
0
0
0
0
0
0
0
0
0
0
0
0
0
0
0
0
0
0
0
0
0
0
0
0
0
1
1
0
0
0
0
0
0
0
0
0
0
0
0
0
0
0
0
0
0
0
0
1
1
0
0
0
0
0
0
0
0
0
0
0
0
0
0
0
0
0
0
0
0
0
0
0
0
0
0
0
0
0
0
0
0
0
1
1
0
0
0
0
0
0
0
0
0
0
0
0
0
0
0
0
0
0
0
0
1
1
0
0
0
0
0
0
0
0
0
0
0
0
0
0
0
0
0
0
0
0
0
0
0
0
0
0
0
0
0
0
0
0
0
1
1
0
0
0
0
0
0
0
0
0
0
0
0
0
0
0
0
0
0
0
0
1
1
0
0
0
0
0
0
0
0
0
0
0
0
0
0
0
0
0
0
0
0
0
0
0
0
0
0
0
0
0
0
0
0
0
1
1
0
0
0
0
0
0
0
0
0
0
0
0
0
0
0
0
0
0
0
0
1
1
0
0
0
0
0
0
0
0
0
0
0
0
0
0
0
0
0
0
0
0
0
0
0
0
0
0
0
0
0
0
0
0
0
1
1
0
0
0
0
0
0
0
0
0
0
0
0
0
0
0
0
0
0
0
0
1
1
0
0
0
0
0
0
0
0
0
0
0
0
0
0
0
0
0
0
0
0
0
0
0
0
0
0
0
0
0
0
0
0
0
1
1
0
0
0
0
0
0
0
0
0
0
0
0
0
0
0
0
0
0
0
0
1
1
0
0
0
0
0
0
0
0
0
0
0
0
0
0
0
0
0
0
0
0
0
0
0
0
0
0
0
0
0
0
0
0
0
1
1
0
0
0
0
0
0
0
0
0
0
0
0
0
0
0
0
0
0
0
0
1
1
0
0
0
0
0
0
0
0
0
0
0
0
0
0
0
0
0
0
0
0
0
0
0
0
0
0
0
0
0
0
0
0
0
1
1
0
0
0
0
0
0
0
0
0
0
0
0
0
0
0
0
0
0
0
0
1
1
0
0
0
0
0
0
0
0
0
0
0
0
0
0
0
0
0
0
0
0
0
0
0
0
0
0
0
0
0
0
0
0
0
1
1
0
0
0
0
0
0
0
0
0
0
0
0
0
0
0
0
0
0
0
0
1
1
0
0
0
0
0
0
0
0
0
0
0
0
0
0
0
0
0
0
0
0
0
0
0
0
0
0
0
0
0
0
0
0
0
1
1
0
0
0
0
0
0
0
0
0
0
0
0
0
0
0
0
0
0
0
0
1
1
0
0
0
0
0
0
0
0
0
0
0
0
0
0
0
0
0
0
0
0
0
0
0
0
0
0
0
0
0
0
0
0
0
1
1
0
0
0
0
0
0
0
0
0
0
0
0
0
0
0
0
0
0
0
0
1
1
0
0
0
0
0
0
0
0
0
0
0
0
0
0
0
0
0
0
0
0
0
0
0
0
0
0
0
0
0
0
0
0
0
1
1
0
0
0
0
0
0
0
0
0
0
0
0
0
0
0
0
0
0
0
0
1
1
0
0
0
0
0
0
0
0
0
0
0
0
0
0
0
0
0
0
0
0
0
0
0
0
0
0
0
0
0
0
0
0
0
1
1
0
0
0
0
0
0
0
0
0
0
0
0
0
0
0
0
0
0
0
0
1
1
0
0
0
0
0
0
0
0
0
0
0
0
0
0
0
0
0
0
0
0
0
0
0
0
0
0
0
0
0
0
0
0
0
1
1
0
0
0
0
0
0
0
0
0
0
0
0
0
0
0
0
0
0
0
0
1
1
0
0
0
0
0
0
0
0
0
0
0
0
0
0
0
0
0
0
0
0
0
0
0
0
0
0
0
0
0
0
0
0
0
1
1
0
0
0
0
0
0
0
0
0
0
0
0
0
0
0
0
0
0
0
0
1
1
0
0
0
0
0
0
0
0
0
0
0
0
0
0
0
0
0
0
0
0
0
0
0
0
0
0
0
0
0
0
0
0
0
1
1
0
0
0
0
0
0
0
0
0
0
0
0
0
0
0
0
0
0
0
0
1
1
0
0
0
0
0
0
0
0
0
0
0
0
0
0
0
0
0
0
0
0
0
0
0
0
0
0
0
0
0
0
0
0
0
1
1
0
0
0
0
0
0
0
0
0
0
0
0
0
0
0
0
0
0
0
0
1
1
0
0
0
0
0
0
0
0
0
0
0
0
0
0
0
0
0
0
0
0
0
0
0
0
0
0
0
0
0
0
0
0
0
1
1
0
0
0
0
0
0
0
0
0
0
0
0
0
0
0
0
0
0
0
0
1
1
0
0
0
0
0
0
0
0
0
0
0
0
0
0
0
0
0
0
0
0
0
0
0
0
0
0
0
0
0
0
0
0
0
1
1
0
0
0
0
0
0
0
0
0
0
0
0
0
0
0
0
0
0
0
0
1
1
0
0
0
0
0
0
0
0
0
0
0
0
0
0
0
0
0
0
0
0
0
0
0
0
0
0
0
0
0
0
0
0
0
1
1
1
1
1
1
1
1
1
1
1
1
1
1
1
1
1
1
1
1
1
1
1
1
1
1
1
1
1
1
1
1
1
1
1
1
1
1
1
1
1
1
1
1
1
1
1
1
1
1
1
1
1
1
1
1
1
1
				</DataArray>
				<DataArray type="Float64" Name="h" NumberOfComponents="1" Format="ascii">
1.3106456189
1.3090379417
1.3095954745
1.3107105321
1.3123818809
1.3146053373
1.3173709870
1.3206602856
1.3244433455
1.3286757141
1.3332958566
1.3382229006
1.3433541198
1.3485639556
1.3537043513
1.3586069020
1.3630891550
1.3669646273
1.3700560158
1.3722111372
1.3733183095
1.3733183095
1.1472856025
1.1476809985
1.1476962238
1.1477132504
1.1477102129
1.1476616171
1.1475422958
1.1473296606
1.1470027148
1.1465408766
1.1459229936
1.1451248483
1.1441172539
1.1428641454
1.1413189734
1.1394213559
1.1370933764
1.1342350172
1.1307217560
1.1264052057
1.1211197589
1.1147009845
1.1070171980
1.0980153589
1.0877755418
1.0765537420
1.0647922027
1.0530784998
1.0420517114
1.0322902308
1.0242240574
1.0181020128
1.0140206362
1.0119879833
1.0119879833
1.3090379417
1.3076983026
1.3082098865
1.3092359238
1.3107806544
1.3128475164
1.3154357495
1.3185367542
1.3221306708
1.3261824564
1.3306386709
1.3354246509
1.3404415260
1.3455649527
1.3506454899
1.3555111189
1.3599742790
1.3638428078
1.3669340437
1.3690915023
1.3702005770
1.3733183095
1.1476809985
1.1479663314
1.1479922203
1.1480304120
1.1480587870
1.1480516373
1.1479837701
1.1478328978
1.1475787608
1.1472020314
1.1466834377
1.1460013965
1.1451302685
1.1440386757
1.1426861234
1.1410198160
1.1389709991
1.1364500237
1.1333428054
1.1295092148
1.1247857703
1.1189982449
1.1119865530
1.1036451908
1.0939777442
1.0831501076
1.0715230003
1.0596398653
1.0481556091
1.0377275928
1.0289087152
1.0220825832
1.0174630576
1.0151406281
1.0119879833
1.3101069936
1.3087401267
1.3092309059
1.3102162234
1.3117020229
1.3136940972
1.3161944747
1.3191975112
1.3226861876
1.3266279594
1.3309713837
1.3356432679
1.3405458292
1.3455557092
1.3505247494
1.3552829393
1.3596457481
1.3634251043
1.3664431840
1.3685484034
1.3696302045
1.3727863240
1.1467392538
1.1471005171
1.1471277806
1.1471674697
1.1471955452
1.1471843551
1.1471070844
1.1469401925
1.1466624253
1.1462535819
1.1456935416
1.1449598684
1.1440261283
1.1428603681
1.1414220481
1.1396593879
1.1375065041
1.1348796226
1.1316750023
1.1277688572
1.1230210990
1.1172873577
1.1104400855
1.1024006192
1.0931808484
1.0829231177
1.0719268618
1.0606465717
1.0496479872
1.0395322351
1.0308492342
1.0240287610
1.0193557949
1.0169872274
1.0135956254
1.3121957317
1.3107745973
1.3112259804
1.3121340339
1.3135076569
1.3153567774
1.3176884053
1.3205022796
1.3237866693
1.3275138030
1.3316361816
1.3360836529
1.3407608168
1.3455465439
1.3502954859
1.3548418101
1.3590070645
1.3626112117
1.3654858117
1.3674887203
1.3685171531
1.3717476413
1.1448259667
1.1453349970
1.1453654216
1.1454088580
1.1454373550
1.1454193534
1.1453248409
1.1451278792
1.1448053909
1.1443356581
1.1436971702
1.1428661945
1.1418152437
1.1405118995
1.1389163737
1.1369798701
1.1346431821
1.1318349010
1.1284717267
1.1244606241
1.1197036360
1.1141079143
1.1075995419
1.1001414204
1.0917548305
1.0825397088
1.0726932589
1.0625230107
1.0524438594
1.0429540720
1.0345855855
1.0278359565
1.0231084771
1.0206772212
1.0168297241
1.3152106234
1.3137090548
1.3141064997
1.3149084065
1.3161270831
1.3177773538
1.3198723260
1.3224185780
1.3254113746
1.3288295535
1.3326313844
1.3367514855
1.3410985009
1.3455552421
1.3499811422
1.3542170047
1.3580935339
1.3614423914
1.3641085281
1.3659631198
1.3669142928
1.3702504327
1.1418915518
1.1426108023
1.1426470873
1.1426982025
1.1427301568
1.1427054976
1.1425895490
1.1423530573
1.1419706298
1.1414188414
1.1406748465
1.1397139411
1.1385082962
1.1370263238
1.1352311472
1.1330803274
1.1305262734
1.1275167128
1.1239973633
1.1199157642
1.1152258672
1.1098940555
1.1039035114
1.0972566829
1.0899774202
1.0821140576
1.0737517049
1.0650385325
1.0562190689
1.0476607680
1.0398490420
1.0333338602
1.0286423381
1.0261853044
1.0217098259
1.3190218003
1.3174161018
1.3177502522
1.3184269886
1.3194615336
1.3208731325
1.3226807649
1.3248980525
1.3275279669
1.3305571594
1.3339512686
1.3376515653
1.3415728351
1.3456041244
1.3496121747
1.3534472392
1.3569522720
1.3599739234
1.3623738417
1.3640395607
1.3648925184
1.3683589170
1.1378892722
1.1388643176
1.1389107509
1.1389764341
1.1390190139
1.1389931438
1.1388582008
1.1385810424
1.1381339574
1.1374922572
1.1366326152
1.1355306601
1.1341600836
1.1324926968
1.1304979530
1.1281441010
1.1254002755
1.1222387466
1.1186389457
1.1145914154
1.1101003239
1.1051840768
1.0998706474
1.0941881282
1.0881541215
1.0817689845
1.0750246230
1.0679373169
1.0606013712
1.0532496942
1.0462890618
1.0402743796
1.0358147397
1.0334339527
1.0282256176
1.3234740175
1.3217453338
1.3220123025
1.3225553250
1.3233911778
1.3245418769
1.3260307122
1.3278772320
1.3300916996
1.3326689973
1.3355833648
1.3387846588
1.3421962876
1.3457163919
1.3492221015
1.3525762738
1.3556371882
1.3582693436
1.3603536379
1.3617961255
1.3625332157
1.3661462209
1.1328072604
1.1340570856
1.1341204173
1.1342121673
1.1342790423
1.1342657997
1.1341248253
1.1338189307
1.1333186336
1.1325991010
1.1316381694
1.1304139824
1.1289045030
1.1270882612
1.1249448198
1.1224570230
1.1196141118
1.1164146658
1.1128704710
1.1090089521
1.1048724828
1.1005140104
1.0959864701
1.0913276318
1.0865449591
1.0816061530
1.0764461126
1.0709987256
1.0652534319
1.0593277288
1.0535270215
1.0483488881
1.0444043068
1.0422606576
1.0363000584
1.3283999327
1.3265369229
1.3267377375
1.3271480402
1.3277842181
1.3286685555
1.3298260274
1.3312798324
1.3330460107
1.3351272109
1.3375069701
1.3401455179
1.3429775637
1.3459136055
1.3488446622
1.3516495924
1.3542049984
1.3563956573
1.3581235754
1.3593147370
1.3599215895
1.3636882125
1.1267030028
1.1282099000
1.1283003111
1.1284360440
1.1285499468
1.1285748622
1.1284553734
1.1281504547
1.1276298298
1.1268700981
1.1258523516
1.1245597845
1.1229774933
1.1210937058
1.1189007891
1.1163979275
1.1135943138
1.1105115835
1.1071862965
1.1036701134
1.1000262893
1.0963225203
1.0926187930
1.0889524455
1.0853245861
1.0816921355
1.0779732248
1.0740724451
1.0699275543
1.0655743600
1.0612100756
1.0572168015
1.0541096387
1.0523969308
1.0457584895
1.3336314797
1.3316327446
1.3317721430
1.3320580770
1.3325044252
1.3331308833
1.3339609043
1.3350182694
1.3363223708
1.3378822778
1.3396908236
1.3417199884
1.3439183488
1.3462121264
1.3485098951
1.3507099743
1.3527101346
1.3544174747
1.3557564438
1.3566738724
1.3571390082
1.3610564209
1.1197324496
1.1214353358
1.1215672974
1.1217728567
1.1219675953
1.1220703164
1.1220170951
1.1217634059
1.1212792198
1.1205440954
1.1195442508
1.1182699631
1.1167153825
1.1148798515
1.1127688867
1.1103965369
1.1077878302
1.1049799504
1.1020229730
1.0989782545
1.0959136954
1.0928966182
1.0899837085
1.0872099787
1.0845796362
1.0820610501
1.0795902922
1.0770871733
1.0744851669
1.0717751663
1.0690524043
1.0665408559
1.0645679708
1.0634727157
1.0563177852
1.3390091120
1.3368847516
1.3369696701
1.3371441446
1.3374176665
1.3378046717
1.3383238766
1.3389962846
1.3398416399
1.3408733195
1.3420926467
1.3434840367
1.3450120009
1.3466215465
1.3482422769
1.3497952512
1.3512020099
1.3523937108
1.3533182951
1.3539442189
1.3542583808
1.3583139078
1.1121563172
1.1139525088
1.1141452121
1.1144549002
1.1147757568
1.1150101497
1.1150847990
1.1149517523
1.1145817877
1.1139582344
1.1130733220
1.1119251171
1.1105169947
1.1088586162
1.1069663706
1.1048648946
1.1025884167
1.1001806250
1.0976941417
1.0951883091
1.0927250134
1.0903637272
1.0881555056
1.0861371709
1.0843271822
1.0827234814
1.0813049324
1.0800374351
1.0788842241
1.0778208375
1.0768511893
1.0760158601
1.0753873962
1.0750468065
1.0676004218
1.3443891729
1.3421611147
1.3421992159
1.3422769190
1.3423980122
1.3425696422
1.3428030991
1.3431134860
1.3435177461
1.3440309140
1.3446611847
1.3454051661
1.3462444825
1.3471452309
1.3480609192
1.3489381596
1.3497245160
1.3503767228
1.3508672356
1.3511871711
1.3513424716
1.3555140295
1.1043099217
1.1060685300
1.1063456486
1.1068012663
1.1073030325
1.1077340442
1.1080104197
1.1080801770
1.1079144716
1.1074999638
1.1068343189
1.1059224427
1.1047752933
1.1034102035
1.1018504962
1.1001260273
1.0982735580
1.0963357659
1.0943602962
1.0923980877
1.0905009533
1.0887197572
1.0871029014
1.0856955810
1.0845401556
1.0836763536
1.0831404323
1.0829613075
1.0831502139
1.0836833937
1.0844801671
1.0853862760
1.0861862795
1.0866586871
1.0791743439
1.3496464835
1.3473475414
1.3473460665
1.3473412437
1.3473305713
1.3473127924
1.3472899882
1.3472689196
1.3472608539
1.3472796098
1.3473379367
1.3474433494
1.3475945632
1.3477799003
1.3479786458
1.3481650244
1.3483144073
1.3484104647
1.3484513855
1.3484526077
1.3484415423
1.3526984188
1.0965429016
1.0981277680
1.0985167293
1.0991654041
1.0999084864
1.1006064738
1.1011631121
1.1015208818
1.1016496536
1.1015375932
1.1011858293
1.1006038539
1.0998074785
1.0988183626
1.0976627598
1.0963712363
1.0949784546
1.0935218950
1.0920411798
1.0905776011
1.0891738793
1.0878755246
1.0867334155
1.0858074226
1.0851705286
1.0849107500
1.0851276039
1.0859178696
1.0873439442
1.0893835612
1.0918700289
1.0944529002
1.0966311841
1.0978880437
1.0906094833
1.3546741651
1.3523459832
1.3523110994
1.3522362351
1.3521127386
1.3519308105
1.3516826080
1.3513650643
1.3509815181
1.3505418080
1.3500604435
1.3495535558
1.3490355737
1.3485167206
1.3480026051
1.3474961038
1.3470015653
1.3465307829
1.3461092171
1.3457792007
1.3455935785
1.3498974346
1.0891445152
1.0904392564
1.0909705363
1.0918622707
1.0929083319
1.0939430071
1.0948555157
1.0955804364
1.0960835559
1.0963515995
1.0963863003
1.0961989661
1.0958074964
1.0952350877
1.0945081796
1.0936555861
1.0927080575
1.0916971112
1.0906549887
1.0896155543
1.0886161259
1.0877016303
1.0869306211
1.0863825143
1.0861646973
1.0864153563
1.0872963282
1.0889673822
1.0915325271
1.0949584235
1.0989836829
1.1030691965
1.1064618629
1.1084010428
1.1015307969
1.3593831527
1.3570733469
1.3570099984
1.3568754323
1.3566555810
1.3563328094
1.3558896454
1.3553127286
1.3545960348
1.3537430536
1.3527670704
1.3516897346
1.3505385051
1.3493436264
1.3481360595
1.3469471440
1.3458105840
1.3447671877
1.3438714956
1.3431963670
1.3428261236
1.3471322134
1.0822799425
1.0832058811
1.0839130215
1.0850991758
1.0865081863
1.0879448280
1.0892816557
1.0904423533
1.0913849344
1.0920910071
1.0925597363
1.0928016875
1.0928348524
1.0926824853
1.0923702710
1.0919250159
1.0913741917
1.0907450441
1.0900652612
1.0893651302
1.0886811309
1.0880624114
1.0875796231
1.0873350782
1.0874720374
1.0881773232
1.0896690128
1.0921575001
1.0957692903
1.1004383914
1.1057972252
1.1111351408
1.1155031121
1.1179756414
1.1116565156
1.3637000393
1.3614588414
1.3613709977
1.3611853021
1.3608833834
1.3604410666
1.3598323238
1.3590339229
1.3580298813
1.3568155464
1.3554001014
1.3538071269
1.3520733736
1.3502457925
1.3483781949
1.3465288381
1.3447601622
1.3431423253
1.3417607743
1.3407235540
1.3401552111
1.3444138052
1.0759605289
1.0764820993
1.0774032647
1.0789371342
1.0807674197
1.0826673378
1.0844911197
1.0861480634
1.0875839112
1.0887709215
1.0897024911
1.0903864476
1.0908399608
1.0910863302
1.0911512348
1.0910609612
1.0908419478
1.0905201759
1.0901224906
1.0896798278
1.0892322754
1.0888374714
1.0885817340
1.0885924762
1.0890487028
1.0901818930
1.0922564562
1.0955156171
1.1000832572
1.1058355687
1.1122900392
1.1185916700
1.1236641600
1.1265040849
1.1208148536
1.3675657018
1.3654423789
1.3653335145
1.3651043277
1.3647333997
1.3641915902
1.3634458438
1.3624641020
1.3612205392
1.3597012045
1.3579086541
1.3558647023
1.3536109997
1.3512067720
1.3487248002
1.3462473184
1.3438636540
1.3416726860
1.3397920979
1.3383705282
1.3375849796
1.3417430551
1.0700466543
1.0701651924
1.0713468213
1.0732866076
1.0755981963
1.0780237548
1.0803982917
1.0826124605
1.0845940760
1.0863010204
1.0877175919
1.0888474128
1.0897069450
1.0903208139
1.0907167808
1.0909232914
1.0909688927
1.0908818271
1.0906919274
1.0904347735
1.0901580296
1.0899314876
1.0898600415
1.0900976576
1.0908578871
1.0924111249
1.0950554496
1.0990457264
1.1044757983
1.1111405968
1.1184410948
1.1254138216
1.1309258688
1.1339749352
1.1289371541
1.3709360782
1.3689754161
1.3688490266
1.3685839761
1.3681569878
1.3675355196
1.3666811384
1.3655543147
1.3641199937
1.3623543671
1.3602513698
1.3578276087
1.3551250610
1.3522101220
1.3491695751
1.3461053453
1.3431303333
1.3403699960
1.3379742637
1.3361378549
1.3351068880
1.3391102083
1.0642692109
1.0640104090
1.0655136790
1.0679277731
1.0707887608
1.0738124876
1.0768143846
1.0796604906
1.0822529731
1.0845289036
1.0864596807
1.0880436212
1.0892975122
1.0902497301
1.0909333137
1.0913824250
1.0916313961
1.0917144249
1.0916680051
1.0915359585
1.0913769862
1.0912761825
1.0913594494
1.0918082430
1.0928686976
1.0948431118
1.0980488245
1.1027298368
1.1089237795
1.1163267616
1.1242307669
1.1316048727
1.1373234298
1.1404469165
1.1360379466
1.3737829775
1.3720220433
1.3718820316
1.3715894288
1.3711200698
1.3704393387
1.3695049213
1.3682712011
1.3666947755
1.3647419181
1.3623965685
1.3596672371
1.3565919175
1.3532388754
1.3497032109
1.3461010402
1.3425638579
1.3392394021
1.3363073574
1.3340127966
1.3326931038
1.3364887489
1.0582523284
1.0576535187
1.0595657945
1.0625415086
1.0660385188
1.0697570356
1.0734917958
1.0770746263
1.0803708801
1.0832883139
1.0857810273
1.0878414362
1.0894888024
1.0907589629
1.0916945937
1.0923400006
1.0927394757
1.0929370109
1.0929792826
1.0929216022
1.0928367308
1.0928277789
1.0930436747
1.0936938495
1.0950544259
1.0974517242
1.1012072185
1.1065322765
1.1133863241
1.1213573379
1.1296442394
1.1371901058
1.1429277438
1.1460214931
1.1421893008
1.3760955328
1.3745610004
1.3744118206
1.3741009099
1.3736038846
1.3728850227
1.3718993068
1.3705962529
1.3689250808
1.3668424713
1.3643216314
1.3613608209
1.3579903427
1.3542752563
1.3503129483
1.3462272063
1.3421613403
1.3382782324
1.3347806963
1.3319647859
1.3302874566
1.3338269051
1.0515235053
1.0506250616
1.0530805631
1.0567386368
1.0609939664
1.0655487413
1.0701716886
1.0746440952
1.0787785005
1.0824428418
1.0855697141
1.0881464777
1.0901988992
1.0917757724
1.0929352204
1.0937371443
1.0942405591
1.0945033126
1.0945857189
1.0945575502
1.0945082646
1.0945612664
1.0948900651
1.0957320394
1.0973901192
1.1002062760
1.1044913084
1.1104047309
1.1178119331
1.1261921464
1.1346729538
1.1422088523
1.1478271157
1.1508178729
1.1474943606
1.3778815753
1.3765879812
1.3764344898
1.3761151537
1.3756057383
1.3748700079
1.3738610589
1.3725245254
1.3708032143
1.3686448352
1.3660117241
1.3628905339
1.3593009581
1.3553002906
1.3509821497
1.3464706858
1.3419124244
1.3374747653
1.3333707204
1.3299397523
1.3277914370
1.3310342213
1.0435044359
1.0423471340
1.0455658620
1.0500865706
1.0552885087
1.0608977422
1.0666401818
1.0722197183
1.0773754819
1.0819254850
1.0857795824
1.0889245605
1.0913999751
1.0932755355
1.0946323107
1.0955522873
1.0961144951
1.0963948677
1.0964707141
1.0964289409
1.0963779103
1.0964630788
1.0968835044
1.0979038607
1.0998501554
1.1030715516
1.1078546359
1.1142917714
1.1221454812
1.1307931816
1.1393152361
1.1467077736
1.1521136737
1.1549554766
1.1520668687
1.3791671346
1.3781162692
1.3779632890
1.3776452116
1.3771380850
1.3764054560
1.3753990674
1.3740614658
1.3723300045
1.3701442931
1.3674561908
1.3642401418
1.3605031353
1.3562907861
1.3516870742
1.3468086299
1.3417948493
1.3368030257
1.3320344172
1.3278479304
1.3250354975
1.3279533517
1.0334675198
1.0320959188
1.0364632121
1.0421417165
1.0486046686
1.0556140911
1.0628126936
1.0697889295
1.0761895190
1.0817803804
1.0864562396
1.0902149458
1.0931219497
1.0952786291
1.0967978941
1.0977908361
1.0983618140
1.0986088344
1.0986291601
1.0985289910
1.0984371971
1.0985223592
1.0990093035
1.1001886195
1.1024051871
1.1060072232
1.1112456299
1.1181350179
1.1263329701
1.1351274208
1.1435748381
1.1507345081
1.1558733645
1.1585422068
1.1560162632
1.3799942019
1.3791757608
1.3790273981
1.3787187593
1.3782261808
1.3775131363
1.3765304112
1.3752182014
1.3735094418
1.3713367866
1.3686425146
1.3653889659
1.3615691301
1.3572137230
1.3523915097
1.3472032743
1.3417692635
1.3362176530
1.3307037757
1.3255512481
1.3217331515
1.3243146595
1.0204019012
1.0188729948
1.0251238710
1.0325076391
1.0407961542
1.0497526415
1.0588664410
1.0675778990
1.0754445095
1.0822012377
1.0877527234
1.0921300944
1.0954419985
1.0978339635
1.0994595147
1.1004649225
1.1009839850
1.1011395935
1.1010508550
1.1008444429
1.1006704087
1.1007206062
1.1012449369
1.1025577414
1.1050182203
1.1089662252
1.1146081181
1.1218750286
1.1303232466
1.1391665268
1.1474576324
1.1543318871
1.1591790493
1.1616673667
1.1594377021
1.3804167461
1.3798101840
1.3796689681
1.3793747711
1.3789041892
1.3782207319
1.3772746152
1.3760044756
1.3743400318
1.3722084622
1.3695439306
1.3662976008
1.3624481970
1.3580093940
1.3530299655
1.3475865690
1.3417668764
1.3356461977
1.3292837722
1.3228577426
1.3174057749
1.3196616274
1.0025259651
1.0009224873
1.0106983362
1.0209853402
1.0321573426
1.0438766048
1.0554393639
1.0661764689
1.0756244461
1.0835522549
1.0899232646
1.0948339720
1.0984552902
1.1009871748
1.1026289193
1.1035643205
1.1039574557
1.1039562620
1.1037014984
1.1033398464
1.1030418567
1.1030216257
1.1035524076
1.1049693681
1.1076413384
1.1118934784
1.1178816810
1.1254524283
1.1340686314
1.1428859330
1.1509691426
1.1575349233
1.1620880054
1.1643998451
1.1624080581
1.3804972427
1.3800744075
1.3799403955
1.3796606688
1.3792119914
1.3785579175
1.3776483430
1.3764209832
1.3748034170
1.3727188247
1.3700949982
1.3668736093
1.3630203242
1.3585320782
1.3534364043
1.3477820019
1.3416150459
1.3349355825
1.3276414004
1.3195586638
1.3112924651
1.3132622926
0.9752034504
0.9736537275
0.9919130716
1.0081266274
1.0240643654
1.0395256524
1.0538979846
1.0666551502
1.0774961043
1.0863395157
1.0932712720
1.0984829659
1.1022175797
1.1047290340
1.1062578032
1.1070196527
1.1072037653
1.1069788717
1.1065040133
1.1059431330
1.1054849087
1.1053633423
1.1058723226
1.1073643283
1.1102132993
1.1147248256
1.1210014323
1.1288077373
1.1375239332
1.1462627161
1.1541118691
1.1603686916
1.1646410500
1.1667882216
1.1649845435
1.3803058228
1.3800338361
1.3799041787
1.3796330273
1.3791969695
1.3785591538
1.3776686528
1.3764617421
1.3748632551
1.3727915222
1.3701666549
1.3669187443
1.3629973960
1.3583794877
1.3530696843
1.3470940722
1.3404806373
1.3332112767
1.3251112166
1.3155900647
1.3033266363
1.3050931066
0.9215254480
0.9202378140
0.9674589224
0.9971317764
1.0203711287
1.0399378376
1.0565899410
1.0705550903
1.0819780459
1.0910420696
1.0979854495
1.1030856123
1.1066336406
1.1089110469
1.1101763471
1.1106590349
1.1105598515
1.1100586412
1.1093258876
1.1085378503
1.1078975315
1.1076555384
1.1081230761
1.1096662745
1.1126602872
1.1173880669
1.1238988851
1.1318815062
1.1406454998
1.1492738380
1.1568836499
1.1628478031
1.1668635008
1.1688627418
1.1672056984
1.3799213900
1.3797652444
1.3796351627
1.3793627461
1.3789238262
1.3782801944
1.3773786164
1.3761515925
1.3745173432
1.3723826821
1.3696482776
1.3662114116
1.3619668287
1.3567998070
1.3505583675
1.3429924744
1.3336253046
1.3214716083
1.3043998510
1.2775308144
1.2287328267
1.1244174293
0.9805692602
1.0134196687
0.9940610924
0.9976673700
1.0131009722
1.0270475334
1.0413403965
1.0553900112
1.0684524494
1.0800005685
1.0897593683
1.0976550742
1.1037564667
1.1082257917
1.1112759425
1.1131365364
1.1140342833
1.1141813343
1.1137707364
1.1129815196
1.1119881222
1.1109742244
1.1101536067
1.1097904672
1.1102103527
1.1117899729
1.1149030000
1.1198088192
1.1265064440
1.1346172966
1.1433928277
1.1518970545
1.1592788811
1.1649787474
1.1687688152
1.1706397871
1.1690953148
1.3794299888
1.3793543754
1.3792196299
1.3789374688
1.3784829896
1.3778167171
1.3768833573
1.3756122076
1.3739160803
1.3716927259
1.3688283458
1.3651975319
1.3606610003
1.3550559737
1.3481659889
1.3396626934
1.3289960052
1.3151764264
1.2963445325
1.2688429761
1.2250536280
1.1491610405
0.9773814212
1.0105343088
1.0037258734
1.0093336207
1.0225049872
1.0362591267
1.0501314746
1.0634667422
1.0756967603
1.0864310166
1.0954722640
1.1027694533
1.1083821496
1.1124494101
1.1151583765
1.1167163126
1.1173345032
1.1172168192
1.1165536905
1.1155260892
1.1143137605
1.1131082253
1.1121336539
1.1116667018
1.1120455200
1.1136554361
1.1168674255
1.1219185212
1.1287629704
1.1369650863
1.1457303359
1.1541119383
1.1612897660
1.1667620126
1.1703616768
1.1721255596
1.1706658878
1.3789095393
1.3788796437
1.3787376011
1.3784406849
1.3779637918
1.3772670784
1.3762946028
1.3749746245
1.3732179018
1.3709183538
1.3679558906
1.3641952547
1.3594832935
1.3536406181
1.3464348256
1.3375322416
1.3264127858
1.3122086235
1.2934141935
1.2673318239
1.2289627506
1.1704014039
1.0565245057
1.0485060112
1.0334817857
1.0312414011
1.0377637963
1.0478256509
1.0593925345
1.0711211995
1.0821450992
1.0919424651
1.1002442761
1.1069659754
1.1121341679
1.1158531820
1.1182793813
1.1195951083
1.1199943763
1.1196712212
1.1188121497
1.1175988555
1.1162151669
1.1148591368
1.1137637319
1.1132160989
1.1135647969
1.1152018520
1.1184950717
1.1236618354
1.1306188429
1.1388844133
1.1476292133
1.1559012718
1.1629080471
1.1681945959
1.1716412851
1.1733198342
1.1719222778
1.3784113682
1.3783926267
1.3782418350
1.3779275700
1.3774251414
1.3766953099
1.3756828971
1.3743170914
1.3725093809
1.3701538172
1.3671295939
1.3632994246
1.3585070061
1.3525703693
1.3452585136
1.3362512759
1.3250720241
1.3109630327
1.2926790813
1.2681336194
1.2337776874
1.1849041603
1.1027975623
1.0766316386
1.0564866815
1.0489755464
1.0507775697
1.0577101133
1.0671752378
1.0774256926
1.0873603357
1.0963306368
1.1039969820
1.1102257044
1.1150178923
1.1184479768
1.1206454238
1.1217706100
1.1220018638
1.1215237811
1.1205185308
1.1191674930
1.1176571073
1.1161901635
1.1150062474
1.1144004733
1.1147292327
1.1163893269
1.1197454900
1.1249992722
1.1320382382
1.1403461672
1.1490689384
1.1572527534
1.1641273199
1.1692730918
1.1726050997
1.1742200652
1.1728658448
1.3779531310
1.3779102951
1.3777497605
1.3774163826
1.3768862962
1.3761214836
1.3750683655
1.3736581205
1.3718043858
1.3694032816
1.3663358661
1.3624662557
1.3576392894
1.3516750665
1.3443478454
1.3353510503
1.3242407226
1.3103320519
1.2925390653
1.2691262932
1.2373324220
1.1939157023
1.1286955442
1.0949705781
1.0717024400
1.0608980032
1.0597164207
1.0645181412
1.0725073998
1.0817171668
1.0908925864
1.0992926751
1.1065240415
1.1124174861
1.1169524713
1.1201855181
1.1222278218
1.1232247040
1.1233435891
1.1227624111
1.1216602082
1.1202180216
1.1186239787
1.1170840297
1.1158422075
1.1151989755
1.1155159312
1.1171929020
1.1205922019
1.1259042848
1.1329968356
1.1413306285
1.1500356893
1.1581579952
1.1649427953
1.1699942119
1.1732499400
1.1748227912
1.1734959500
1.3775211491
1.3774173104
1.3772462846
1.3768923866
1.3763327050
1.3755306106
1.3744343057
1.3729771146
1.3710750263
1.3686265702
1.3655151807
1.3616071679
1.3567494748
1.3507647940
1.3434315693
1.3344514673
1.3233978557
1.3096219881
1.2921132815
1.2692972518
1.2387659802
1.1978799232
1.1400960231
1.1037762617
1.0791013064
1.0667497682
1.0641473141
1.0678968292
1.0751465879
1.0838355965
1.0926345505
1.1007545905
1.1077735664
1.1135044012
1.1179139149
1.1210507272
1.1230170955
1.1239509768
1.1240144595
1.1233822428
1.1222318925
1.1207443641