<VTKFile type="UnstructuredGrid" version="0.1">
	<UnstructuredGrid>
		<Piece NumberOfPoints="13548" NumberOfCells="3387">
			<CellData>
				<DataArray type="Int32" Name="ghost" NumberOfComponents="1" Format="ascii">
1
1
1
1
1
1
1
1
1
1
1
1
1
1
1
1
1
1
1
1
1
1
1
1
1
1
1
1
1
1
1
1
1
1
1
1
1
1
1
1
1
1
1
1
1
1
1
1
1
1
1
1
1
1
1
1
1
1
0
0
0
0
0
0
0
0
0
0
0
0
0
0
0
0
0
0
0
0
1
1
0
0
0
0
0
0
0
0
0
0
0
0
0
0
0
0
0
0
0
0
0
0
0
0
0
0
0
0
0
0
0
0
0
1
1
0
0
0
0
0
0
0
0
0
0
0
0
0
0
0
0
0
0
0
0
1
1
0
0
0
0
0
0
0
0
0
0
0
0
0
0
0
0
0
0
0
0
0
0
0
0
0
0
0
0
0
0
0
0
0
1
1
0
0
0
0
0
0
0
0
0
0
0
0
0
0
0
0
0
0
0
0
1
1
0
0
0
0
0
0
0
0
0
0
0
0
0
0
0
0
0
0
0
0
0
0
0
0
0
0
0
0
0
0
0
0
0
1
1
0
0
0
0
0
0
0
0
0
0
0
0
0
0
0
0
0
0
0
0
1
1
0
0
0
0
0
0
0
0
0
0
0
0
0
0
0
0
0
0
0
0
0
0
0
0
0
0
0
0
0
0
0
0
0
1
1
0
0
0
0
0
0
0
0
0
0
0
0
0
0
0
0
0
0
0
0
1
1
0
0
0
0
0
0
0
0
0
0
0
0
0
0
0
0
0
0
0
0
0
0
0
0
0
0
0
0
0
0
0
0
0
1
1
0
0
0
0
0
0
0
0
0
0
0
0
0
0
0
0
0
0
0
0
1
1
0
0
0
0
0
0
0
0
0
0
0
0
0
0
0
0
0
0
0
0
0
0
0
0
0
0
0
0
0
0
0
0
0
1
1
0
0
0
0
0
0
0
0
0
0
0
0
0
0
0
0
0
0
0
0
1
1
0
0
0
0
0
0
0
0
0
0
0
0
0
0
0
0
0
0
0
0
0
0
0
0
0
0
0
0
0
0
0
0
0
1
1
0
0
0
0
0
0
0
0
0
0
0
0
0
0
0
0
0
0
0
0
1
1
0
0
0
0
0
0
0
0
0
0
0
0
0
0
0
0
0
0
0
0
0
0
0
0
0
0
0
0
0
0
0
0
0
1
1
0
0
0
0
0
0
0
0
0
0
0
0
0
0
0
0
0
0
0
0
1
1
0
0
0
0
0
0
0
0
0
0
0
0
0
0
0
0
0
0
0
0
0
0
0
0
0
0
0
0
0
0
0
0
0
1
1
0
0
0
0
0
0
0
0
0
0
0
0
0
0
0
0
0
0
0
0
1
1
0
0
0
0
0
0
0
0
0
0
0
0
0
0
0
0
0
0
0
0
0
0
0
0
0
0
0
0
0
0
0
0
0
1
1
0
0
0
0
0
0
0
0
0
0
0
0
0
0
0
0
0
0
0
0
1
1
0
0
0
0
0
0
0
0
0
0
0
0
0
0
0
0
0
0
0
0
0
0
0
0
0
0
0
0
0
0
0
0
0
1
1
0
0
0
0
0
0
0
0
0
0
0
0
0
0
0
0
0
0
0
0
1
1
0
0
0
0
0
0
0
0
0
0
0
0
0
0
0
0
0
0
0
0
0
0
0
0
0
0
0
0
0
0
0
0
0
1
1
0
0
0
0
0
0
0
0
0
0
0
0
0
0
0
0
0
0
0
0
1
1
0
0
0
0
0
0
0
0
0
0
0
0
0
0
0
0
0
0
0
0
0
0
0
0
0
0
0
0
0
0
0
0
0
1
1
0
0
0
0
0
0
0
0
0
0
0
0
0
0
0
0
0
0
0
0
1
1
0
0
0
0
0
0
0
0
0
0
0
0
0
0
0
0
0
0
0
0
0
0
0
0
0
0
0
0
0
0
0
0
0
1
1
0
0
0
0
0
0
0
0
0
0
0
0
0
0
0
0
0
0
0
0
1
1
0
0
0
0
0
0
0
0
0
0
0
0
0
0
0
0
0
0
0
0
0
0
0
0
0
0
0
0
0
0
0
0
0
1
1
0
0
0
0
0
0
0
0
0
0
0
0
0
0
0
0
0
0
0
0
1
1
0
0
0
0
0
0
0
0
0
0
0
0
0
0
0
0
0
0
0
0
0
0
0
0
0
0
0
0
0
0
0
0
0
1
1
0
0
0
0
0
0
0
0
0
0
0
0
0
0
0
0
0
0
0
0
1
1
0
0
0
0
0
0
0
0
0
0
0
0
0
0
0
0
0
0
0
0
0
0
0
0
0
0
0
0
0
0
0
0
0
1
1
0
0
0
0
0
0
0
0
0
0
0
0
0
0
0
0
0
0
0
0
1
1
0
0
0
0
0
0
0
0
0
0
0
0
0
0
0
0
0
0
0
0
0
0
0
0
0
0
0
0
0
0
0
0
0
1
1
0
0
0
0
0
0
0
0
0
0
0
0
0
0
0
0
0
0
0
0
1
1
0
0
0
0
0
0
0
0
0
0
0
0
0
0
0
0
0
0
0
0
0
0
0
0
0
0
0
0
0
0
0
0
0
1
1
0
0
0
0
0
0
0
0
0
0
0
0
0
0
0
0
0
0
0
0
1
1
0
0
0
0
0
0
0
0
0
0
0
0
0
0
0
0
0
0
0
0
0
0
0
0
0
0
0
0
0
0
0
0
0
1
1
0
0
0
0
0
0
0
0
0
0
0
0
0
0
0
0
0
0
0
0
1
1
0
0
0
0
0
0
0
0
0
0
0
0
0
0
0
0
0
0
0
0
0
0
0
0
0
0
0
0
0
0
0
0
0
1
1
0
0
0
0
0
0
0
0
0
0
0
0
0
0
0
0
0
0
0
0
1
1
0
0
0
0
0
0
0
0
0
0
0
0
0
0
0
0
0
0
0
0
0
0
0
0
0
0
0
0
0
0
0
0
0
1
1
0
0
0
0
0
0
0
0
0
0
0
0
0
0
0
0
0
0
0
0
1
1
0
0
0
0
0
0
0
0
0
0
0
0
0
0
0
0
0
0
0
0
0
0
0
0
0
0
0
0
0
0
0
0
0
1
1
0
0
0
0
0
0
0
0
0
0
0
0
0
0
0
0
0
0
0
0
1
1
0
0
0
0
0
0
0
0
0
0
0
0
0
0
0
0
0
0
0
0
0
0
0
0
0
0
0
0
0
0
0
0
0
1
1
0
0
0
0
0
0
0
0
0
0
0
0
0
0
0
0
0
0
0
0
0
1
1
0
0
0
0
0
0
0
0
0
0
0
0
0
0
0
0
0
0
0
0
0
0
0
0
0
0
0
0
0
0
0
0
0
0
1
1
0
0
0
0
0
0
0
0
0
0
0
0
0
0
0
0
0
0
0
0
0
0
0
0
0
0
0
0
0
0
0
0
0
0
0
0
0
0
0
0
0
0
0
0
0
0
0
0
0
0
0
0
0
0
0
0
0
1
1
0
0
0
0
0
0
0
0
0
0
0
0
0
0
0
0
0
0
0
0
0
0
0
0
0
0
0
0
0
0
0
0
0
0
0
0
0
0
0
0
0
0
0
0
0
0
0
0
0
0
0
0
0
0
0
0
0
1
1
0
0
0
0
0
0
0
0
0
0
0
0
0
0
0
0
0
0
0
0
0
0
0
0
0
0
0
0
0
0
0
0
0
0
0
0
0
0
0
0
0
0
0
0
0
0
0
0
0
0
0
0
0
0
0
0
0
1
1
0
0
0
0
0
0
0
0
0
0
0
0
0
0
0
0
0
0
0
0
0
0
0
0
0
0
0
0
0
0
0
0
0
0
0
0
0
0
0
0
0
0
0
0
0
0
0
0
0
0
0
0
0
0
0
0
0
1
1
0
0
0
0
0
0
0
0
0
0
0
0
0
0
0
0
0
0
0
0
0
0
0
0
0
0
0
0
0
0
0
0
0
0
0
0
0
0
0
0
0
0
0
0
0
0
0
0
0
0
0
0
0
0
0
0
0
1
1
0
0
0
0
0
0
0
0
0
0
0
0
0
0
0
0
0
0
0
0
0
0
0
0
0
0
0
0
0
0
0
0
0
0
0
0
0
0
0
0
0
0
0
0
0
0
0
0
0
0
0
0
0
0
0
0
0
1
1
0
0
0
0
0
0
0
0
0
0
0
0
0
0
0
0
0
0
0
0
0
0
0
0
0
0
0
0
0
0
0
0
0
0
0
0
0
0
0
0
0
0
0
0
0
0
0
0
0
0
0
0
0
0
0
0
0
1
1
0
0
0
0
0
0
0
0
0
0
0
0
0
0
0
0
0
0
0
0
0
0
0
0
0
0
0
0
0
0
0
0
0
0
0
0
0
0
0
0
0
0
0
0
0
0
0
0
0
0
0
0
0
0
0
0
0
1
1
0
0
0
0
0
0
0
0
0
0
0
0
0
0
0
0
0
0
0
0
0
0
0
0
0
0
0
0
0
0
0
0
0
0
0
0
0
0
0
0
0
0
0
0
0
0
0
0
0
0
0
0
0
0
0
0
0
1
1
0
0
0
0
0
0
0
0
0
0
0
0
0
0
0
0
0
0
0
0
0
0
0
0
0
0
0
0
0
0
0
0
0
0
0
0
0
0
0
0
0
0
0
0
0
0
0
0
0
0
0
0
0
0
0
0
0
1
1
0
0
0
0
0
0
0
0
0
0
0
0
0
0
0
0
0
0
0
0
0
1
1
0
0
0
0
0
0
0
0
0
0
0
0
0
0
0
0
0
0
0
0
0
0
0
0
0
0
0
0
0
0
0
0
0
0
1
1
0
0
0
0
0
0
0
0
0
0
0
0
0
0
0
0
0
0
0
0
1
1
0
0
0
0
0
0
0
0
0
0
0
0
0
0
0
0
0
0
0
0
0
0
0
0
0
0
0
0
0
0
0
0
0
1
1
0
0
0
0
0
0
0
0
0
0
0
0
0
0
0
0
0
0
0
0
1
1
0
0
0
0
0
0
0
0
0
0
0
0
0
0
0
0
0
0
0
0
0
0
0
0
0
0
0
0
0
0
0
0
0
1
1
0
0
0
0
0
0
0
0
0
0
0
0
0
0
0
0
0
0
0
0
1
1
0
0
0
0
0
0
0
0
0
0
0
0
0
0
0
0
0
0
0
0
0
0
0
0
0
0
0
0
0
0
0
0
0
1
1
0
0
0
0
0
0
0
0
0
0
0
0
0
0
0
0
0
0
0
0
1
1
0
0
0
0
0
0
0
0
0
0
0
0
0
0
0
0
0
0
0
0
0
0
0
0
0
0
0
0
0
0
0
0
0
1
1
0
0
0
0
0
0
0
0
0
0
0
0
0
0
0
0
0
0
0
0
1
1
0
0
0
0
0
0
0
0
0
0
0
0
0
0
0
0
0
0
0
0
0
0
0
0
0
0
0
0
0
0
0
0
0
1
1
0
0
0
0
0
0
0
0
0
0
0
0
0
0
0
0
0
0
0
0
1
1
0
0
0
0
0
0
0
0
0
0
0
0
0
0
0
0
0
0
0
0
0
0
0
0
0
0
0
0
0
0
0
0
0
1
1
0
0
0
0
0
0
0
0
0
0
0
0
0
0
0
0
0
0
0
0
1
1
0
0
0
0
0
0
0
0
0
0
0
0
0
0
0
0
0
0
0
0
0
0
0
0
0
0
0
0
0
0
0
0
0
1
1
0
0
0
0
0
0
0
0
0
0
0
0
0
0
0
0
0
0
0
0
1
1
0
0
0
0
0
0
0
0
0
0
0
0
0
0
0
0
0
0
0
0
0
0
0
0
0
0
0
0
0
0
0
0
0
1
1
0
0
0
0
0
0
0
0
0
0
0
0
0
0
0
0
0
0
0
0
1
1
0
0
0
0
0
0
0
0
0
0
0
0
0
0
0
0
0
0
0
0
0
0
0
0
0
0
0
0
0
0
0
0
0
1
1
0
0
0
0
0
0
0
0
0
0
0
0
0
0
0
0
0
0
0
0
1
1
0
0
0
0
0
0
0
0
0
0
0
0
0
0
0
0
0
0
0
0
0
0
0
0
0
0
0
0
0
0
0
0
0
1
1
0
0
0
0
0
0
0
0
0
0
0
0
0
0
0
0
0
0
0
0
1
1
0
0
0
0
0
0
0
0
0
0
0
0
0
0
0
0
0
0
0
0
0
0
0
0
0
0
0
0
0
0
0
0
0
1
1
0
0
0
0
0
0
0
0
0
0
0
0
0
0
0
0
0
0
0
0
1
1
0
0
0
0
0
0
0
0
0
0
0
0
0
0
0
0
0
0
0
0
0
0
0
0
0
0
0
0
0
0
0
0
0
1
1
0
0
0
0
0
0
0
0
0
0
0
0
0
0
0
0
0
0
0
0
1
1
0
0
0
0
0
0
0
0
0
0
0
0
0
0
0
0
0
0
0
0
0
0
0
0
0
0
0
0
0
0
0
0
0
1
1
0
0
0
0
0
0
0
0
0
0
0
0
0
0
0
0
0
0
0
0
1
1
0
0
0
0
0
0
0
0
0
0
0
0
0
0
0
0
0
0
0
0
0
0
0
0
0
0
0
0
0
0
0
0
0
1
1
0
0
0
0
0
0
0
0
0
0
0
0
0
0
0
0
0
0
0
0
1
1
0
0
0
0
0
0
0
0
0
0
0
0
0
0
0
0
0
0
0
0
0
0
0
0
0
0
0
0
0
0
0
0
0
1
1
0
0
0
0
0
0
0
0
0
0
0
0
0
0
0
0
0
0
0
0
1
1
0
0
0
0
0
0
0
0
0
0
0
0
0
0
0
0
0
0
0
0
0
0
0
0
0
0
0
0
0
0
0
0
0
1
1
0
0
0
0
0
0
0
0
0
0
0
0
0
0
0
0
0
0
0
0
1
1
0
0
0
0
0
0
0
0
0
0
0
0
0
0
0
0
0
0
0
0
0
0
0
0
0
0
0
0
0
0
0
0
0
1
1
0
0
0
0
0
0
0
0
0
0
0
0
0
0
0
0
0
0
0
0
1
1
0
0
0
0
0
0
0
0
0
0
0
0
0
0
0
0
0
0
0
0
0
0
0
0
0
0
0
0
0
0
0
0
0
1
1
0
0
0
0
0
0
0
0
0
0
0
0
0
0
0
0
0
0
0
0
1
1
0
0
0
0
0
0
0
0
0
0
0
0
0
0
0
0
0
0
0
0
0
0
0
0
0
0
0
0
0
0
0
0
0
1
1
0
0
0
0
0
0
0
0
0
0
0
0
0
0
0
0
0
0
0
0
1
1
0
0
0
0
0
0
0
0
0
0
0
0
0
0
0
0
0
0
0
0
0
0
0
0
0
0
0
0
0
0
0
0
0
1
1
0
0
0
0
0
0
0
0
0
0
0
0
0
0
0
0
0
0
0
0
1
1
0
0
0
0
0
0
0
0
0
0
0
0
0
0
0
0
0
0
0
0
0
0
0
0
0
0
0
0
0
0
0
0
0
1
1
1
1
1
1
1
1
1
1
1
1
1
1
1
1
1
1
1
1
1
1
1
1
1
1
1
1
1
1
1
1
1
1
1
1
1
1
1
1
1
1
1
1
1
1
1
1
1
1
1
1
1
1
1
1
1
1
				</DataArray>
				<DataArray type="Float64" Name="h" NumberOfComponents="1" Format="ascii">
1.1661766614
1.1642536363
1.1641626656
1.1639832976
1.1637204448
1.1633814438
1.1629758330
1.1625148014
1.1620108314
1.1614770652
1.1609265826
1.1603720040
1.1598251651
1.1592971160
1.1587983675
1.1583392649
1.1579305531
1.1575834679
1.1573094331
1.1571193427
1.1570218767
1.1570218767
1.2658927618
1.2683754449
1.2669229522
1.2640330679
1.2597641453
1.2542637802
1.2478048941
1.2407857923
1.2336869466
1.2269913314
1.2210969208
1.2162581363
1.2125697337
1.2099884900
1.2083767330
1.2075477389
1.2073026602
1.2074548812
1.2078432412
1.2083380578
1.2088410606
1.2092829200
1.2096204111
1.2098316631
1.2099120147
1.2098709531
1.2097277688
1.2095082710
1.2092425918
1.2089617422
1.2086952609
1.2084698796
1.2083070526
1.2082216290
1.2082216290
1.1642536363
1.1623038715
1.1622033302
1.1620033913
1.1617063751
1.1613163428
1.1608395147
1.1602844079
1.1596620980
1.1589860587
1.1582716653
1.1575357512
1.1567960207
1.1560705819
1.1553776321
1.1547352874
1.1541616345
1.1536744165
1.1532904633
1.1530247920
1.1528888435
1.1570218767
1.2683754449
1.2706537668
1.2693487014
1.2667300562
1.2628097114
1.2576697006
1.2515081835
1.2446557728
1.2375500757
1.2306673990
1.2244340803
1.2191552216
1.2149814960
1.2119170199
1.2098563752
1.2086299364
1.2080441825
1.2079103892
1.2080615149
1.2083607042
1.2087026847
1.2090119936
1.2092403450
1.2093618220
1.2093685730
1.2092675531
1.2090759925
1.2088179818
1.2085221815
1.2082183232
1.2079348466
1.2076975658
1.2075272179
1.2074381607
1.2082216290
1.1640561880
1.1621444383
1.1620436226
1.1618432706
1.1615459463
1.1611560099
1.1606799707
1.1601265649
1.1595069657
1.1588345982
1.1581246476
1.1573936429
1.1566589149
1.1559381872
1.1552493143
1.1546101634
1.1540387051
1.1535527257
1.1531692562
1.1529036226
1.1527675882
1.1568785345
1.2683422961
1.2706522440
1.2693440682
1.2667215619
1.2628008699
1.2576691807
1.2515290386
1.2447128641
1.2376564369
1.2308309731
1.2246562288
1.2194314626
1.2153038108
1.2122765567
1.2102455607
1.2090436063
1.2084798381
1.2083678758
1.2085424321
1.2088677684
1.2092391401
1.2095811193
1.2098450704
1.2100044320
1.2100504917
1.2099892016
1.2098367048
1.2096159724
1.2093545638
1.2090811721
1.2088233007
1.2086059656
1.2084492768
1.2083671599
1.2090898357
1.1636632973
1.1618262799
1.1617250499
1.1615241261
1.1612265314
1.1608371862
1.1603631375
1.1598135184
1.1591996654
1.1585348844
1.1578339716
1.1571128497
1.1563881147
1.1556767368
1.1549959029
1.1543629959
1.1537957673
1.1533121014
1.1529294456
1.1526637647
1.1525274891
1.1565944099
1.2682579393
1.2706296102
1.2693156474
1.2666862292
1.2627658926
1.2576518912
1.2515552103
1.2448115703
1.2378529380
1.2311404405
1.2250809868
1.2199625478
1.2159255147
1.2129716811
1.2109994921
1.2098464831
1.2093270306
1.2092593477
1.2094815883
1.2098602075
1.2102914998
1.2107001045
1.2110366886
1.2112733993
1.2113997919
1.2114197863
1.2113473098
1.2112030379
1.2110122574
1.2108015065
1.2105963355
1.2104200879
1.2102915543
1.2102237493
1.2108283017
1.1630799884
1.1613517963
1.1612502757
1.1610491184
1.1607519665
1.1603644893
1.1598944379
1.1593514449
1.1587470121
1.1580942153
1.1574072466
1.1567011266
1.1559913780
1.1552938801
1.1546248574
1.1540010005
1.1534397587
1.1529591893
1.1525773987
1.1523113583
1.1521745563
1.1561758031
1.2680874286
1.2705479987
1.2692264291
1.2665886443
1.2626714190
1.2575864967
1.2515567200
1.2449220044
1.2381082346
1.2315616522
1.2256706687
1.2207072822
1.2168025468
1.2139564312
1.2120713131
1.2109916881
1.2105395309
1.2105397135
1.2108353814
1.2112961810
1.2118199238
1.2123313439
1.2127800706
1.2131363168
1.2133870199
1.2135330008
1.2135847746
1.2135594486
1.2134787449
1.2133657926
1.2132430278
1.2131311099
1.2130467010
1.2130013383
1.2134376636
1.1623136459
1.1607243713
1.1606230601
1.1604227167
1.1601276823
1.1597444569
1.1592815470
1.1587490774
1.1581586305
1.1575228849
1.1568551927
1.1561693880
1.1554796136
1.1548003634
1.1541466480
1.1535342917
1.1529803858
1.1525032618
1.1521219665
1.1518549068
1.1517170922
1.1556314355
1.2677798002
1.2703523873
1.2690227527
1.2663776699
1.2624695433
1.2574282843
1.2514910695
1.2450020666
1.2383784478
1.2320470942
1.2263731441
1.2216089822
1.2178745605
1.2151681033
1.2133973018
1.2124156140
1.2120546887
1.2121478511
1.2125445897
1.2131186213
1.2137697016
1.2144226839
1.2150258374
1.2155468176
1.2159690618
1.2162891988
1.2165130743
1.2166528546
1.2167252724
1.2167486363
1.2167409395
1.2167189824
1.2166963480
1.2166824262
1.2169117242
1.1613744198
1.1599487275
1.1598485923
1.1596509877
1.1593609309
1.1589857013
1.1585344674
1.1580177055
1.1574468891
1.1568340680
1.1561914970
1.1555315535
1.1548667355
1.1542099080
1.1535746639
1.1529758253
1.1524300961
1.1519562113
1.1515744884
1.1513052819
1.1511656934
1.1549724425
1.2672701463
1.2699729819
1.2686367262
1.2659889146
1.2621003204
1.2571216893
1.2513058070
1.2450001496
1.2386101810
1.2325394112
1.2271260121
1.2226003443
1.2190704275
1.2165332638
1.2149032306
1.2140444684
1.2137999977
1.2140130419
1.2145405226
1.2152609458
1.2160763675
1.2169117768
1.2177137919
1.2184469321
1.2190902895
1.2196352235
1.2200816352
1.2204353248
1.2207065226
1.2209071910
1.2210494199
1.2211448450
1.2212029024
1.2212300769
1.2212291582
1.1602761280
1.1590318539
1.1589343914
1.1587424457
1.1584615687
1.1580996148
1.1576661586
1.1571717400
1.1566274207
1.1560443234
1.1554333272
1.1548051031
1.1541702833
1.1535399134
1.1529260118
1.1523422937
1.1518050638
1.1513336103
1.1509499024
1.1506768600
1.1505343957
1.1542135009
1.2664829597
1.2693289132
1.2679898761
1.2653482756
1.2614951319
1.2566034396
1.2509414841
1.2448580525
1.2387436290
1.2329749659
1.2278608001
1.2236083547
1.2203138186
1.2179738798
1.2165108911
1.2158010287
1.2156999226
1.2160617162
1.2167515313
1.2176531752
1.2186712588
1.2197309034
1.2207768217
1.2217698884
1.2226840893
1.2235045174
1.2242239230
1.2248403614
1.2253560722
1.2257751479
1.2261023005
1.2263426698
1.2265004501
1.2265784398
1.2263437704
1.1590354322
1.1579822963
1.1578895592
1.1577072350
1.1574411434
1.1570993487
1.1566914078
1.1562274860
1.1557178189
1.1551722388
1.1545999549
1.1540097022
1.1534100698
1.1528101423
1.1522202445
1.1516528974
1.1511239960
1.1506535359
1.1502655692
1.1499863305
1.1498394667
1.1533715997
1.2653348232
1.2683312252
1.2669960978
1.2643747977
1.2605793970
1.2558051011
1.2503341084
1.2445135318
1.2387154977
1.2332873962
1.2285073399
1.2245595436
1.2215292775
1.2194140828
1.2181453811
1.2176122810
1.2176837253
1.2182253120
1.2191107505
1.2202294069
1.2214885623
1.2228134255
1.2241465840
1.2254448524
1.2266764857
1.2278194806
1.2288584168
1.2297824235
1.2305844605
1.2312594213
1.2318033453
1.2322137045
1.2324884849
1.2326261078
1.2321766226
1.1576717793
1.1568103399
1.1567249206
1.1565571925
1.1563128546
1.1559996631
1.1556265747
1.1552028041
1.1547372449
1.1542380198
1.1537123600
1.1531668543
1.1526079078
1.1520425386
1.1514792796
1.1509293660
1.1504082448
1.1499367513
1.1495414886
1.1492529154
1.1490996131
1.1524662470
1.2637380606
1.2668867265
1.2655653170
1.2629839621
1.2592753485
1.2546552943
1.2494168974
1.2439018293
1.2384606214
1.2334096221
1.2289963751
1.2253832820
1.2226461935
1.2207847281
1.2197401254
1.2194147651
1.2196910014
1.2204458774
1.2215616508
1.2229332061
1.2244704357
1.2260985258
1.2277577497
1.2294005636
1.2309890617
1.2324935794
1.2338898332
1.2351572240
1.2362785584
1.2372386341
1.2380239496
1.2386235286
1.2390285100
1.2392324840
1.2386102055
1.1562072429
1.1555282935
1.1554532689
1.1553060227
1.1550916419
1.1548169278
1.1544895224
1.1541170011
1.1537063174
1.1532634204
1.1527932438
1.1523000318
1.1517878875
1.1512616741
1.1507280297
1.1501967743
1.1496827996
1.1492078433
1.1488015344
1.1484996428
1.1483372573
1.1515207347
1.2616052413
1.2649026504
1.2636077800
1.2610912872
1.2575047315
1.2530814463
1.2481212277
1.2429561127
1.2379122484
1.2332742914
1.2292603843
1.2260130913
1.2236006097
1.2220256497
1.2212394881
1.2211574410
1.2216746967
1.2226791492
1.2240611063
1.2257206082
1.2275699074
1.2295339860
1.2315506558
1.2335678692
1.2355413929
1.2374337076
1.2392114462
1.2408440408
1.2423038998
1.2435654932
1.2446055718
1.2454045430
1.2459465745
1.2462203437
1.2454879171
1.1546649452
1.1541495151
1.1540883453
1.1539681938
1.1537929739
1.1535677976
1.1532981912
1.1529893255
1.1526455621
1.1522701807
1.1518654864
1.1514331820
1.1509749536
1.1504934132
1.1499931665
1.1494824118
1.1489752557
1.1484942659
1.1480725241
1.1477523912
1.1475775365
1.1505611236
1.2588518121
1.2622893218
1.2610363255
1.2586138823
1.2551894680
1.2510095937
1.2463757943
1.2416063252
1.2370009285
1.2328129832
1.2292332753
1.2263869004
1.2243360349
1.2230869594
1.2226004530
1.2228036297
1.2236031988
1.2248967046
1.2265815540
1.2285622769
1.2307530718
1.2330785032
1.2354738698
1.2378826981
1.2402546154
1.2425445357
1.2447103914
1.2467121132
1.2485122500
1.2500755327
1.2513695683
1.2523667234
1.2530446906
1.2533876005
1.2526224297
1.1530681946
1.1526882731
1.1526446589
1.1525586828
1.1524324991
1.1522687675
1.1520700670
1.1518383741
1.1515747859
1.1512794018
1.1509515554
1.1505901993
1.1501944692
1.1497645951
1.1493029453
1.1488157674
1.1483159632
1.1478266300
1.1473845886
1.1470402532
1.1468486157
1.1496165670
1.2553994404
1.2589635113
1.2577691822
1.2554722569
1.2522522704
1.2483638489
1.2441051825
1.2397772187
1.2356523490
1.2319541101
1.2288485197
1.2264454930
1.2248022089
1.2239280755
1.2237918243
1.2243302789
1.2254595676
1.2270850936
1.2291100172
1.2314424733
1.2339981301
1.2367010023
1.2394840360
1.2422867532
1.2450532999
1.2477319006
1.2502728642
1.2526278660
1.2547509640
1.2565985817
1.2581305962
1.2593126347
1.2601170068
1.2605240849
1.2598098262
1.1514395490
1.1511596142
1.1511373303
1.1510927751
1.1510257906
1.1509358602
1.1508218240
1.1506817065
1.1505126877
1.1503111804
1.1500731935
1.1497946970
1.1494721060
1.1491030788
1.1486874436
1.1482290015
1.1477387597
1.1472396859
1.1467723292
1.1463967351
1.1461828340
1.1487204486
1.2511805398
1.2548530599
1.2537339271
1.2515931151
1.2486180629
1.2450665285
1.2412289852
1.2373868038
1.2337854254
1.2306208707
1.2280371038
1.2261305170
1.2249531686
1.2245157953
1.2247922194
1.2257257869
1.2272391259
1.2292431812
1.2316452552
1.2343561515
1.2372926582
1.2403783824
1.2435444748
1.2467273772
1.2498670075
1.2529064415
1.2557901559
1.2584635577
1.2608743193
1.2629726909
1.2647128753
1.2660556107
1.2669693484
1.2674317921
1.2668487447
1.1497994848
1.1495787652
1.1495814681
1.1495853931
1.1495876064
1.1495838032
1.1495684053
1.1495348223
1.1494757288
1.1493833749
1.1492500900
1.1490686011
1.1488323834
1.1485362620
1.1481771053
1.1477555672
1.1472797194
1.1467712179
1.1462737958
1.1458586726
1.1456154584
1.1479091016
1.2461412109
1.2498999393
1.2488700099
1.2469109914
1.2442146608
1.2410380569
1.2376612347
1.2343456181
1.2313116318
1.2287307684
1.2267272700
1.2253844104
1.2247472622
1.2248242604
1.2255898435
1.2269894669
1.2289485498
1.2313808798
1.2341962474
1.2373074014
1.2406323058
1.2440948418
1.2476255457
1.2511593769
1.2546339685
1.2579894625
1.2611669314
1.2641080820
1.2667568130
1.2690597630
1.2709678592
1.2724390599
1.2734396653
1.2739459158
1.2735623182
1.1481661284
1.1479614090
1.1479924378
1.1480513476
1.1481321081
1.1482261929
1.1483231084
1.1484111439
1.1484779941
1.1485113331
1.1484994722
1.1484316169
1.1482980383
1.1480903965
1.1478020654
1.1474296298
1.1469767583
1.1464618950
1.1459305275
1.1454662443
1.1451844704
1.1472215703
1.2402479666
1.2440672163
1.2431351827
1.2413738135
1.2389774269
1.2362008876
1.2333138423
1.2305599014
1.2281380404
1.2261985451
1.2248472910
1.2241528969
1.2241492060
1.2248364113
1.2261832079
1.2281314635
1.2306050073
1.2335176338
1.2367802453
1.2403073739
1.2440189559
1.2478406606
1.2517044312
1.2555461385
1.2593037829
1.2629173733
1.2663274590
1.2694749344
1.2723027268
1.2747565062
1.2767863245
1.2783494132
1.2794115518
1.2799486529
1.2798146158
1.1465552511
1.1463239503
1.1463861443
1.1465056445
1.1466731872
1.1468758213
1.1470978802
1.1473222406
1.1475313057
1.1477078644
1.1478359218
1.1479008908
1.1478895557
1.1477900404
1.1475916064
1.1472856487
1.1468694978
1.1463555482
1.1457882277
1.1452637322
1.1449310160
1.1466999853
1.2334995612
1.2373512082
1.2365171886
1.2349538744
1.2328595394
1.2304892066
1.2281058793
1.2259405237
1.2241758658
1.2229442162
1.2223327992
1.2223913732
1.2231353015
1.2245478631
1.2265835960
1.2291738645
1.2322360966
1.2356814741
1.2394213107
1.2433727070
1.2474594428
1.2516115650
1.2557654176
1.2598609875
1.2638399032
1.2676452301
1.2712200582
1.2745073603
1.2774517497
1.2800003269
1.2821043694
1.2837221251
1.2848202069
1.2853751307
1.2855200286
1.1449805442
1.1446837059
1.1447792410
1.1449637223
1.1452247190
1.1455449132
1.1459034847
1.1462778622
1.1466450561
1.1469828121
1.1472706365
1.1474899341
1.1476237512
1.1476563242
1.1475721762
1.1473562717
1.1469972273
1.1464974276
1.1458953862
1.1452981435
1.1448974058
1.1463874093
1.2259400504
1.2297947684
1.2290468967
1.2276608954
1.2258452241
1.2238625338
1.2219776131
1.2204173617
1.2193549323
1.2189072535
1.2191402229
1.2200771233
1.2217040247
1.2239756150
1.2268218288
1.2301556534
1.2338832787
1.2379113326
1.2421519641
1.2465269467
1.2509671093
1.2554106701
1.2598023332
1.2640900882
1.2682228415
1.2721500112
1.2758201670
1.2791809497
1.2821808913
1.2847704361
1.2869036962
1.2885412209
1.2896514316
1.2902121090
1.2906453495
1.1434545504
1.1430594308
1.1431896881
1.1434420611
1.1438012204
1.1442458046
1.1447501511
1.1452864894
1.1458265850
1.1463431841
1.1468112572
1.1472081057
1.1475128943
1.1477057337
1.1477658967
1.1476707121
1.1473974074
1.1469331913
1.1463029887
1.1456191713
1.1451261307
1.1463266642
1.2176781461
1.2215067678
1.2208177490
1.2195617638
1.2179701894
1.2163270132
1.2149125194
1.2139616437
1.2136457598
1.2140676791
1.2152661138
1.2172261922
1.2198899698
1.2231688759
1.2269560849
1.2311378854
1.2356049372
1.2402585878
1.2450137948
1.2498007029
1.2545618372
1.2592485324
1.2638185926
1.2682323061
1.2724495777
1.2764292620
1.2801279336
1.2834999496
1.2864993879
1.2890813413
1.2912037968
1.2928303956
1.2939319507
1.2944878972
1.2952020894
1.1419893213
1.1414713075
1.1416367767
1.1419582652
1.1424179947
1.1429911279
1.1436477540
1.1443554449
1.1450811506
1.1457929146
1.1464613598
1.1470597958
1.1475635711
1.1479486741
1.1481889018
1.1482530248
1.1481042163
1.1477082800
1.1470652609
1.1462808149
1.1456600727
1.1465602288
1.2089067583
1.2126815279
1.2120054070
1.2108013225
1.2093443956
1.2079603622
1.2069640160
1.2066136037
1.2070869465
1.2084718422
1.2107700639
1.2139124899
1.2177786439
1.2222195414
1.2270784642
1.2322070224
1.2374773010
1.2427863810
1.2480558619
1.2532296332
1.2582678843
1.2631408892
1.2678247069
1.2722962361
1.2765298016
1.2804962583
1.2841620681
1.2874896635
1.2904396148
1.2929723403
1.2950501950
1.2966402485
1.2977159416
1.2982585211
1.2992338095
1.1405969286
1.1399406481
1.1401408355
1.1405307701
1.1410908170
1.1417934360
1.1426053140
1.1434901961
1.1444109508
1.1453315276
1.1462187030
1.1470422266
1.1477740404
1.1483864188
1.1488479622
1.1491185678
1.1491451956
1.1488654720
1.1482391412
1.1473424858
1.1465411109
1.1471282904
1.1999062112
1.2036017146
1.2028716620
1.2016098115
1.2001649986
1.1989308831
1.1982798652
1.1985106067
1.1998147099
1.2022608915
1.2057999368
1.2102883084
1.2155216441
1.2212721718
1.2273204566
1.2334768719
1.2395938960
1.2455675200
1.2513317694
1.2568511401
1.2621103879
1.2671049279
1.2718341292
1.2762953626
1.2804801262
1.2843730617
1.2879516097
1.2911868905
1.2940462441
1.2964955198
1.2985014611
1.3000345310
1.3010707608
1.3015931845
1.3028017222
1.1392898796
1.1384895122
1.1387228104
1.1391783353
1.1398352771
1.1406643064
1.1416297557
1.1426926373
1.1438127993
1.1449510906
1.1460713914
1.1471408326
1.1481289472
1.1490053992
1.1497347185
1.1502686695
1.1505370355
1.1504429372
1.1498864290
1.1488755981
1.1478130813
1.1480708320
1.1910139789
1.1946079881
1.1937378699
1.1922860330
1.1907128449
1.1895077281
1.1891241348
1.1899168689
1.1920954855
1.1957015321
1.2006171710
1.2066021707
1.2133466398
1.2205268876
1.2278502024
1.2350818829
1.2420564371
1.2486742248
1.2548891314
1.2606940307
1.2661053617
1.2711495324
1.2758535334
1.2802381200
1.2843137049
1.2880795351
1.2915242577
1.2946275591
1.2973632255
1.2997021637
1.3016151541
1.3030757389
1.3040623020
1.3045595115
1.3059692503
1.1380813338
1.1371402028
1.1374036732
1.1379192626
1.1386656669
1.1396127073
1.1407234894
1.1419575546
1.1432730729
1.1446292137
1.1459885263
1.1473173122
1.1485848219
1.1497606896
1.1508083613
1.1516744906
1.1522733880
1.1524696254
1.1520814912
1.1509864576
1.1495432332
1.1494473647
1.1824934968
1.1859692589
1.1848791677
1.1831280671
1.1813210225
1.1800617685
1.1799013097
1.1812601565
1.1843649591
1.1892193125
1.1956194433
1.2032092385
1.2115564035
1.2202293739
1.2288563542
1.2371576085
1.2449541308
1.2521578455
1.2587506260
1.2647612793
1.2702441493
1.2752611761
1.2798698060
1.2841156431
1.2880284603
1.2916218454
1.2948950186
1.2978354477
1.3004225484
1.3026315482
1.3044366483
1.3058139679
1.3067438769
1.3072124407
1.3087899073
1.1369866206
1.1359162414
1.1362053413
1.1367721688
1.1375954353
1.1386448302
1.1398831183
1.1412694178
1.1427614262
1.1443180736
1.1459024573
1.1474826499
1.1490313908
1.1505238453
1.1519302819
1.1532027626
1.1542523197
1.1549135350
1.1549088413
1.1538940703
1.1519583668
1.1514685751
1.1740303912
1.1773876013
1.1762441099
1.1743263398
1.1723783914
1.1711286093
1.1712421909
1.1732157237
1.1772949837
1.1834416219
1.1913590996
1.2005685885
1.2105103049
1.2206423199
1.2305145362
1.2398061332
1.2483307622
1.2560191419
1.2628880639
1.2690078283
1.2744745197
1.2793877182
1.2838359447
1.2878892518
1.2915957483
1.2949820117
1.2980564304
1.3008129416
1.3032354288
1.3053024786
1.3069909484
1.3082789406
1.3091483839
1.3095864662
1.3112985466
1.1360270105
1.1348458075
1.1351543682
1.1357601537
1.1366419954
1.1377695509
1.1391052764
1.1406077758
1.1422339718
1.1439420067
1.1456948483
1.1474618221
1.1492195985
1.1509520988
1.1526458577
1.1542805811
1.1558107110
1.1571291982
1.1580069440
1.1580316866
1.1568519267
1.1558953026
1.1620955568
1.1654064608
1.1671269159
1.1663755822
1.1648730199
1.1638759934
1.1643406721
1.1669154532
1.1718984558
1.1792264388
1.1885217220
1.1991925091
1.2105596620
1.2219772300
1.2329221654
1.2430375919
1.2521345459
1.2601666752
1.2671886296
1.2733135280
1.2786790215
1.2834209699
1.2876568255
1.2914786271
1.2949503549
1.2981092965
1.3009710430
1.3035343774
1.3057863451
1.3077078746
1.3092777029
1.3104753341
1.3112838431
1.3116912756
1.3135061027
1.1352346505
1.1339664923
1.1342875498
1.1349182232
1.1358371518
1.1370133866
1.1384080746
1.1399776047
1.1416752106
1.1434532565
1.1452660726
1.1470695720
1.1488188502
1.1504618503
1.1519217206
1.1530623956
1.1536218323
1.1530775630
1.1503825579
1.1434518540
1.1282879989
1.0989519439
1.0764177402
1.1225753510
1.1946416134
1.1818017222
1.1747748777
1.1690840740
1.1646918632
1.1620505670
1.1617171603
1.1641265605
1.1694370653
1.1774642855
1.1877065410
1.1994445798
1.2118781382
1.2242594048
1.2359948338
1.2466929192
1.2561619931
1.2643769766
1.2714272137
1.2774642553
1.2826622656
1.2871882009
1.2911835622
1.2947580951
1.2979880957
1.3009187292
1.3035706135
1.3059457460
1.3080331333
1.3098151705
1.3112718369
1.3123835825
1.3131343099
1.3135127177
1.3153998995
1.1346547375
1.1333274631
1.1336549634
1.1342983300
1.1352358530
1.1364357807
1.1378577622
1.1394558791
1.1411798334
1.1429769642
1.1447951122
1.1465820144
1.1482831933
1.1498372228
1.1511613709
1.1521263795
1.1525134862
1.1519363716
1.1497163387
1.1447105705
1.1352066898
1.1195555541
1.0813454940
1.1262520784
1.1672665224
1.1698502415
1.1688462747
1.1659582128
1.1628100416
1.1607014593
1.1606553344
1.1633549772
1.1690722910
1.1776498152
1.1885570755
1.2010143682
1.2141492341
1.2271468001
1.2393657053
1.2503920329
1.2600350552
1.2682882804
1.2752690672
1.2811588263
1.2861593669
1.2904606212
1.2942213112
1.2975634954
1.3005717384
1.3032961932
1.3057605104
1.3079685655
1.3099104626
1.3115695022
1.3129265367
1.3139627254
1.3146626400
1.3150155294
1.3169459599
1.1343382772
1.1329823288
1.1333119678
1.1339594232
1.1349026823
1.1361093789
1.1375381339
1.1391416591
1.1408678060
1.1426617056
1.1444692471
1.1462371610
1.1479125650
1.1494417068
1.1507610609
1.1517824320
1.1523693008
1.1522920878
1.1511625680
1.1483550360
1.1429550845
1.1337090473
1.1110516381
1.1352436345
1.1621747951
1.1676117965
1.1679642273
1.1659306626
1.1633047883
1.1615115540
1.1616864736
1.1645974490
1.1705639447
1.1794410804
1.1906839405
1.2034825055
1.2169286863
1.2301757283
1.2425618017
1.2536664611
1.2633041366
1.2714818532
1.2783343262
1.2840600990
1.2888762514
1.2929850629
1.2965541526
1.2997117815
1.3025465664
1.3051109454
1.3074299662
1.3095084646
1.3113372028
1.3129002026
1.3141791321
1.3151558767
1.3158157035
1.3161484275
1.3180938166
1.1343303075
1.1329774709
1.1333064319
1.1339523560
1.1348929796
1.1360955235
1.1375180559
1.1391127884
1.1408271595
1.1426062381
1.1443968917
1.1461486051
1.1478145228
1.1493530130
1.1507226750
1.1518739994
1.1527362935
1.1531872425
1.1530055009
1.1518030616
1.1489240082
1.1431425029
1.1287928311
1.1420863701
1.1605272269
1.1672107598
1.1687657993
1.1675643707
1.1654491617
1.1639541582
1.1643068230
1.1673347532
1.1733855484
1.1823189449
1.1935826195
1.2063585472
1.2197366430
1.2328755936
1.2451247295
1.2560763957
1.2655555612
1.2735766257
1.2802786439
1.2858619591
1.2905442956
1.2945280340
1.2979804162
1.3010293609
1.3037632519
1.3062342819
1.3084675474
1.3104682553
1.3122277176
1.3137307914
1.3149601559
1.3158986481
1.3165324116
1.3168519458
1.3187841934
1.1346623113
1.1333445767
1.1336708098
1.1343110678
1.1352427766
1.1364327567
1.1378386944
1.1394126795
1.1411024014
1.1428538069
1.1446157799
1.1463414369
1.1479901041
1.1495306172
1.1509385832
1.1521916936
1.1532621572
1.1540925805
1.1545548883
1.1543836832
1.1530578820
1.1495142998
1.1400213541
1.1475845559
1.1607693179
1.1677319518
1.1702186946
1.1698295880
1.1682772323
1.1671354001
1.1676895755
1.1708042127
1.1768390218
1.1856504851
1.1966837512
1.2091324524
1.2221163431
1.2348364230
1.2466853179
1.2572884528
1.2664878188
1.2742999904
1.2808560041
1.2863430597
1.2909650443
1.2949121866
1.2983420254
1.3013755316
1.3040965368
1.3065544774
1.3087732016
1.3107577754
1.3125000533
1.3139859462
1.3151994403
1.3161246445
1.3167488384
1.3170633780
1.3189539223
1.1353494432
1.1340979419
1.1344195025
1.1350501322
1.1359667933
1.1371357568
1.1385142398
1.1400541798
1.1417035790
1.1434093385
1.1451221933
1.1467981752
1.1484009448
1.1499058281
1.1512980570
1.1525698017
1.1537152892
1.1547097929
1.1554718772
1.1557987257
1.1552477283
1.1528981268
1.1458637021
1.1511219702
1.1619214481
1.1689654402
1.1720699071
1.1723099954
1.1712541373
1.1704594167
1.1712175519
1.1743917554
1.1803305184
1.1888770506
1.1994781467
1.2113573655
1.2236913570
1.2357527933
1.2470019858
1.2571124061
1.2659478614
1.2735233112