<VTKFile type="UnstructuredGrid" version="0.1">
	<UnstructuredGrid>
		<Piece NumberOfPoints="13548" NumberOfCells="3387">
			<CellData>
				<DataArray type="Int32" Name="ghost" NumberOfComponents="1" Format="ascii">
1
1
1
1
1
1
1
1
1
1
1
1
1
1
1
1
1
1
1
1
1
1
1
1
1
1
1
1
1
1
1
1
1
1
1
1
1
1
1
1
1
1
1
1
1
1
1
1
1
1
1
1
1
1
1
1
1
1
0
0
0
0
0
0
0
0
0
0
0
0
0
0
0
0
0
0
0
0
1
1
0
0
0
0
0
0
0
0
0
0
0
0
0
0
0
0
0
0
0
0
0
0
0
0
0
0
0
0
0
0
0
0
0
1
1
0
0
0
0
0
0
0
0
0
0
0
0
0
0
0
0
0
0
0
0
1
1
0
0
0
0
0
0
0
0
0
0
0
0
0
0
0
0
0
0
0
0
0
0
0
0
0
0
0
0
0
0
0
0
0
1
1
0
0
0
0
0
0
0
0
0
0
0
0
0
0
0
0
0
0
0
0
1
1
0
0
0
0
0
0
0
0
0
0
0
0
0
0
0
0
0
0
0
0
0
0
0
0
0
0
0
0
0
0
0
0
0
1
1
0
0
0
0
0
0
0
0
0
0
0
0
0
0
0
0
0
0
0
0
1
1
0
0
0
0
0
0
0
0
0
0
0
0
0
0
0
0
0
0
0
0
0
0
0
0
0
0
0
0
0
0
0
0
0
1
1
0
0
0
0
0
0
0
0
0
0
0
0
0
0
0
0
0
0
0
0
1
1
0
0
0
0
0
0
0
0
0
0
0
0
0
0
0
0
0
0
0
0
0
0
0
0
0
0
0
0
0
0
0
0
0
1
1
0
0
0
0
0
0
0
0
0
0
0
0
0
0
0
0
0
0
0
0
1
1
0
0
0
0
0
0
0
0
0
0
0
0
0
0
0
0
0
0
0
0
0
0
0
0
0
0
0
0
0
0
0
0
0
1
1
0
0
0
0
0
0
0
0
0
0
0
0
0
0
0
0
0
0
0
0
1
1
0
0
0
0
0
0
0
0
0
0
0
0
0
0
0
0
0
0
0
0
0
0
0
0
0
0
0
0
0
0
0
0
0
1
1
0
0
0
0
0
0
0
0
0
0
0
0
0
0
0
0
0
0
0
0
1
1
0
0
0
0
0
0
0
0
0
0
0
0
0
0
0
0
0
0
0
0
0
0
0
0
0
0
0
0
0
0
0
0
0
1
1
0
0
0
0
0
0
0
0
0
0
0
0
0
0
0
0
0
0
0
0
1
1
0
0
0
0
0
0
0
0
0
0
0
0
0
0
0
0
0
0
0
0
0
0
0
0
0
0
0
0
0
0
0
0
0
1
1
0
0
0
0
0
0
0
0
0
0
0
0
0
0
0
0
0
0
0
0
1
1
0
0
0
0
0
0
0
0
0
0
0
0
0
0
0
0
0
0
0
0
0
0
0
0
0
0
0
0
0
0
0
0
0
1
1
0
0
0
0
0
0
0
0
0
0
0
0
0
0
0
0
0
0
0
0
1
1
0
0
0
0
0
0
0
0
0
0
0
0
0
0
0
0
0
0
0
0
0
0
0
0
0
0
0
0
0
0
0
0
0
1
1
0
0
0
0
0
0
0
0
0
0
0
0
0
0
0
0
0
0
0
0
1
1
0
0
0
0
0
0
0
0
0
0
0
0
0
0
0
0
0
0
0
0
0
0
0
0
0
0
0
0
0
0
0
0
0
1
1
0
0
0
0
0
0
0
0
0
0
0
0
0
0
0
0
0
0
0
0
1
1
0
0
0
0
0
0
0
0
0
0
0
0
0
0
0
0
0
0
0
0
0
0
0
0
0
0
0
0
0
0
0
0
0
1
1
0
0
0
0
0
0
0
0
0
0
0
0
0
0
0
0
0
0
0
0
1
1
0
0
0
0
0
0
0
0
0
0
0
0
0
0
0
0
0
0
0
0
0
0
0
0
0
0
0
0
0
0
0
0
0
1
1
0
0
0
0
0
0
0
0
0
0
0
0
0
0
0
0
0
0
0
0
1
1
0
0
0
0
0
0
0
0
0
0
0
0
0
0
0
0
0
0
0
0
0
0
0
0
0
0
0
0
0
0
0
0
0
1
1
0
0
0
0
0
0
0
0
0
0
0
0
0
0
0
0
0
0
0
0
1
1
0
0
0
0
0
0
0
0
0
0
0
0
0
0
0
0
0
0
0
0
0
0
0
0
0
0
0
0
0
0
0
0
0
1
1
0
0
0
0
0
0
0
0
0
0
0
0
0
0
0
0
0
0
0
0
1
1
0
0
0
0
0
0
0
0
0
0
0
0
0
0
0
0
0
0
0
0
0
0
0
0
0
0
0
0
0
0
0
0
0
1
1
0
0
0
0
0
0
0
0
0
0
0
0
0
0
0
0
0
0
0
0
1
1
0
0
0
0
0
0
0
0
0
0
0
0
0
0
0
0
0
0
0
0
0
0
0
0
0
0
0
0
0
0
0
0
0
1
1
0
0
0
0
0
0
0
0
0
0
0
0
0
0
0
0
0
0
0
0
1
1
0
0
0
0
0
0
0
0
0
0
0
0
0
0
0
0
0
0
0
0
0
0
0
0
0
0
0
0
0
0
0
0
0
1
1
0
0
0
0
0
0
0
0
0
0
0
0
0
0
0
0
0
0
0
0
1
1
0
0
0
0
0
0
0
0
0
0
0
0
0
0
0
0
0
0
0
0
0
0
0
0
0
0
0
0
0
0
0
0
0
1
1
0
0
0
0
0
0
0
0
0
0
0
0
0
0
0
0
0
0
0
0
1
1
0
0
0
0
0
0
0
0
0
0
0
0
0
0
0
0
0
0
0
0
0
0
0
0
0
0
0
0
0
0
0
0
0
1
1
0
0
0
0
0
0
0
0
0
0
0
0
0
0
0
0
0
0
0
0
1
1
0
0
0
0
0
0
0
0
0
0
0
0
0
0
0
0
0
0
0
0
0
0
0
0
0
0
0
0
0
0
0
0
0
1
1
0
0
0
0
0
0
0
0
0
0
0
0
0
0
0
0
0
0
0
0
1
1
0
0
0
0
0
0
0
0
0
0
0
0
0
0
0
0
0
0
0
0
0
0
0
0
0
0
0
0
0
0
0
0
0
1
1
0
0
0
0
0
0
0
0
0
0
0
0
0
0
0
0
0
0
0
0
1
1
0
0
0
0
0
0
0
0
0
0
0
0
0
0
0
0
0
0
0
0
0
0
0
0
0
0
0
0
0
0
0
0
0
1
1
0
0
0
0
0
0
0
0
0
0
0
0
0
0
0
0
0
0
0
0
0
1
1
0
0
0
0
0
0
0
0
0
0
0
0
0
0
0
0
0
0
0
0
0
0
0
0
0
0
0
0
0
0
0
0
0
0
1
1
0
0
0
0
0
0
0
0
0
0
0
0
0
0
0
0
0
0
0
0
0
0
0
0
0
0
0
0
0
0
0
0
0
0
0
0
0
0
0
0
0
0
0
0
0
0
0
0
0
0
0
0
0
0
0
0
0
1
1
0
0
0
0
0
0
0
0
0
0
0
0
0
0
0
0
0
0
0
0
0
0
0
0
0
0
0
0
0
0
0
0
0
0
0
0
0
0
0
0
0
0
0
0
0
0
0
0
0
0
0
0
0
0
0
0
0
1
1
0
0
0
0
0
0
0
0
0
0
0
0
0
0
0
0
0
0
0
0
0
0
0
0
0
0
0
0
0
0
0
0
0
0
0
0
0
0
0
0
0
0
0
0
0
0
0
0
0
0
0
0
0
0
0
0
0
1
1
0
0
0
0
0
0
0
0
0
0
0
0
0
0
0
0
0
0
0
0
0
0
0
0
0
0
0
0
0
0
0
0
0
0
0
0
0
0
0
0
0
0
0
0
0
0
0
0
0
0
0
0
0
0
0
0
0
1
1
0
0
0
0
0
0
0
0
0
0
0
0
0
0
0
0
0
0
0
0
0
0
0
0
0
0
0
0
0
0
0
0
0
0
0
0
0
0
0
0
0
0
0
0
0
0
0
0
0
0
0
0
0
0
0
0
0
1
1
0
0
0
0
0
0
0
0
0
0
0
0
0
0
0
0
0
0
0
0
0
0
0
0
0
0
0
0
0
0
0
0
0
0
0
0
0
0
0
0
0
0
0
0
0
0
0
0
0
0
0
0
0
0
0
0
0
1
1
0
0
0
0
0
0
0
0
0
0
0
0
0
0
0
0
0
0
0
0
0
0
0
0
0
0
0
0
0
0
0
0
0
0
0
0
0
0
0
0
0
0
0
0
0
0
0
0
0
0
0
0
0
0
0
0
0
1
1
0
0
0
0
0
0
0
0
0
0
0
0
0
0
0
0
0
0
0
0
0
0
0
0
0
0
0
0
0
0
0
0
0
0
0
0
0
0
0
0
0
0
0
0
0
0
0
0
0
0
0
0
0
0
0
0
0
1
1
0
0
0
0
0
0
0
0
0
0
0
0
0
0
0
0
0
0
0
0
0
0
0
0
0
0
0
0
0
0
0
0
0
0
0
0
0
0
0
0
0
0
0
0
0
0
0
0
0
0
0
0
0
0
0
0
0
1
1
0
0
0
0
0
0
0
0
0
0
0
0
0
0
0
0
0
0
0
0
0
0
0
0
0
0
0
0
0
0
0
0
0
0
0
0
0
0
0
0
0
0
0
0
0
0
0
0
0
0
0
0
0
0
0
0
0
1
1
0
0
0
0
0
0
0
0
0
0
0
0
0
0
0
0
0
0
0
0
0
1
1
0
0
0
0
0
0
0
0
0
0
0
0
0
0
0
0
0
0
0
0
0
0
0
0
0
0
0
0
0
0
0
0
0
0
1
1
0
0
0
0
0
0
0
0
0
0
0
0
0
0
0
0
0
0
0
0
1
1
0
0
0
0
0
0
0
0
0
0
0
0
0
0
0
0
0
0
0
0
0
0
0
0
0
0
0
0
0
0
0
0
0
1
1
0
0
0
0
0
0
0
0
0
0
0
0
0
0
0
0
0
0
0
0
1
1
0
0
0
0
0
0
0
0
0
0
0
0
0
0
0
0
0
0
0
0
0
0
0
0
0
0
0
0
0
0
0
0
0
1
1
0
0
0
0
0
0
0
0
0
0
0
0
0
0
0
0
0
0
0
0
1
1
0
0
0
0
0
0
0
0
0
0
0
0
0
0
0
0
0
0
0
0
0
0
0
0
0
0
0
0
0
0
0
0
0
1
1
0
0
0
0
0
0
0
0
0
0
0
0
0
0
0
0
0
0
0
0
1
1
0
0
0
0
0
0
0
0
0
0
0
0
0
0
0
0
0
0
0
0
0
0
0
0
0
0
0
0
0
0
0
0
0
1
1
0
0
0
0
0
0
0
0
0
0
0
0
0
0
0
0
0
0
0
0
1
1
0
0
0
0
0
0
0
0
0
0
0
0
0
0
0
0
0
0
0
0
0
0
0
0
0
0
0
0
0
0
0
0
0
1
1
0
0
0
0
0
0
0
0
0
0
0
0
0
0
0
0
0
0
0
0
1
1
0
0
0
0
0
0
0
0
0
0
0
0
0
0
0
0
0
0
0
0
0
0
0
0
0
0
0
0
0
0
0
0
0
1
1
0
0
0
0
0
0
0
0
0
0
0
0
0
0
0
0
0
0
0
0
1
1
0
0
0
0
0
0
0
0
0
0
0
0
0
0
0
0
0
0
0
0
0
0
0
0
0
0
0
0
0
0
0
0
0
1
1
0
0
0
0
0
0
0
0
0
0
0
0
0
0
0
0
0
0
0
0
1
1
0
0
0
0
0
0
0
0
0
0
0
0
0
0
0
0
0
0
0
0
0
0
0
0
0
0
0
0
0
0
0
0
0
1
1
0
0
0
0
0
0
0
0
0
0
0
0
0
0
0
0
0
0
0
0
1
1
0
0
0
0
0
0
0
0
0
0
0
0
0
0
0
0
0
0
0
0
0
0
0
0
0
0
0
0
0
0
0
0
0
1
1
0
0
0
0
0
0
0
0
0
0
0
0
0
0
0
0
0
0
0
0
1
1
0
0
0
0
0
0
0
0
0
0
0
0
0
0
0
0
0
0
0
0
0
0
0
0
0
0
0
0
0
0
0
0
0
1
1
0
0
0
0
0
0
0
0
0
0
0
0
0
0
0
0
0
0
0
0
1
1
0
0
0
0
0
0
0
0
0
0
0
0
0
0
0
0
0
0
0
0
0
0
0
0
0
0
0
0
0
0
0
0
0
1
1
0
0
0
0
0
0
0
0
0
0
0
0
0
0
0
0
0
0
0
0
1
1
0
0
0
0
0
0
0
0
0
0
0
0
0
0
0
0
0
0
0
0
0
0
0
0
0
0
0
0
0
0
0
0
0
1
1
0
0
0
0
0
0
0
0
0
0
0
0
0
0
0
0
0
0
0
0
1
1
0
0
0
0
0
0
0
0
0
0
0
0
0
0
0
0
0
0
0
0
0
0
0
0
0
0
0
0
0
0
0
0
0
1
1
0
0
0
0
0
0
0
0
0
0
0
0
0
0
0
0
0
0
0
0
1
1
0
0
0
0
0
0
0
0
0
0
0
0
0
0
0
0
0
0
0
0
0
0
0
0
0
0
0
0
0
0
0
0
0
1
1
0
0
0
0
0
0
0
0
0
0
0
0
0
0
0
0
0
0
0
0
1
1
0
0
0
0
0
0
0
0
0
0
0
0
0
0
0
0
0
0
0
0
0
0
0
0
0
0
0
0
0
0
0
0
0
1
1
0
0
0
0
0
0
0
0
0
0
0
0
0
0
0
0
0
0
0
0
1
1
0
0
0
0
0
0
0
0
0
0
0
0
0
0
0
0
0
0
0
0
0
0
0
0
0
0
0
0
0
0
0
0
0
1
1
0
0
0
0
0
0
0
0
0
0
0
0
0
0
0
0
0
0
0
0
1
1
0
0
0
0
0
0
0
0
0
0
0
0
0
0
0
0
0
0
0
0
0
0
0
0
0
0
0
0
0
0
0
0
0
1
1
0
0
0
0
0
0
0
0
0
0
0
0
0
0
0
0
0
0
0
0
1
1
0
0
0
0
0
0
0
0
0
0
0
0
0
0
0
0
0
0
0
0
0
0
0
0
0
0
0
0
0
0
0
0
0
1
1
0
0
0
0
0
0
0
0
0
0
0
0
0
0
0
0
0
0
0
0
1
1
0
0
0
0
0
0
0
0
0
0
0
0
0
0
0
0
0
0
0
0
0
0
0
0
0
0
0
0
0
0
0
0
0
1
1
0
0
0
0
0
0
0
0
0
0
0
0
0
0
0
0
0
0
0
0
1
1
0
0
0
0
0
0
0
0
0
0
0
0
0
0
0
0
0
0
0
0
0
0
0
0
0
0
0
0
0
0
0
0
0
1
1
0
0
0
0
0
0
0
0
0
0
0
0
0
0
0
0
0
0
0
0
1
1
0
0
0
0
0
0
0
0
0
0
0
0
0
0
0
0
0
0
0
0
0
0
0
0
0
0
0
0
0
0
0
0
0
1
1
1
1
1
1
1
1
1
1
1
1
1
1
1
1
1
1
1
1
1
1
1
1
1
1
1
1
1
1
1
1
1
1
1
1
1
1
1
1
1
1
1
1
1
1
1
1
1
1
1
1
1
1
1
1
1
1
				</DataArray>
				<DataArray type="Float64" Name="h" NumberOfComponents="1" Format="ascii">
1.0660506151
1.0637797755
1.0637343388
1.0636456622
1.0635184721
1.0633593782
1.0631766175
1.0629799046
1.0627794331
1.0625852380
1.0624065037
1.0622505021
1.0621220372
1.0620229656
1.0619521483
1.0619060292
1.0618792320
1.0618658543
1.0618606402
1.0618593051
1.0618591977
1.0618591977
1.2965914358
1.2963592373
1.2967400569
1.2974884854
1.2985787548
1.2999758314
1.3016377798
1.3035172024
1.3055631060
1.3077209765
1.3099322586
1.3121339877
1.3142573978
1.3162267529
1.3179583101
1.3193595120
1.3203299113
1.3207636936
1.3205552059
1.3196084759
1.3178497894
1.3152434185
1.3118074039
1.3076248434
1.3028473557
1.2976861720
1.2923910496
1.2872221944
1.2824212150
1.2781888134
1.2746744777
1.2719776208
1.2701563227
1.2692398080
1.2692398080
1.0637797755
1.0615467409
1.0615325157
1.0615055052
1.0614689233
1.0614271265
1.0613853720
1.0613497150
1.0613260916
1.0613197796
1.0613348610
1.0613733572
1.0614348668
1.0615163102
1.0616120893
1.0617148068
1.0618159649
1.0619072845
1.0619818163
1.0620341696
1.0620610520
1.0618591977
1.2963592373
1.2962100429
1.2966228443
1.2974329145
1.2986100399
1.3001130566
1.3018927866
1.3038941596
1.3060588276
1.3083259177
1.3106321182
1.3129117948
1.3150958950
1.3171109148
1.3188777598
1.3203105436
1.3213168130
1.3217989425
1.3216581204
1.3208020698
1.3191557307
1.3166755741
1.3133652028
1.3092881684
1.3045750122
1.2994193892
1.2940619009
1.2887651940
1.2837850403
1.2793451588
1.2756222936
1.2727424867
1.2707860994
1.2697980462
1.2692398080
1.0639919730
1.0617687929
1.0617570693
1.0617350742
1.0617060388
1.0616743331
1.0616452075
1.0616246698
1.0616185482
1.0616319271
1.0616685891
1.0617301350
1.0618156107
1.0619212578
1.0620406941
1.0621656709
1.0622868331
1.0623951107
1.0624828964
1.0625443230
1.0625758075
1.0623783622
1.2964631467
1.2963475872
1.2967549049
1.2975535732
1.2987126368
1.3001901381
1.3019363067
1.3038958712
1.3060107918
1.3082210192
1.3104644980
1.3126771491
1.3147916130
1.3167360604
1.3184329192
1.3197975993
1.3207387033
1.3211594530
1.3209617732
1.3200541370
1.3183623483
1.3158439177
1.3125036121
1.3084060786
1.3036825861
1.2985268151
1.2931784489
1.2878982486
1.2829393632
1.2785225545
1.2748217147
1.2719604794
1.2700174204
1.2690363061
1.2684277142
1.0644239904
1.0622207934
1.0622139832
1.0622018371
1.0621876158
1.0621757095
1.0621713474
1.0621804340
1.0622085746
1.0622604633
1.0623392853
1.0624458095
1.0625779957
1.0627307578
1.0628961871
1.0630643824
1.0632243323
1.0633654454
1.0634788597
1.0635578093
1.0635981742
1.0634095031
1.2966612057
1.2966109358
1.2970069581
1.2977822931
1.2989047318
1.3003310188
1.3020104931
1.3038877209
1.3059054175
1.3080051873
1.3101273560
1.3122107052
1.3141909292
1.3159991812
1.3175605821
1.3187928395
1.3196064606
1.3199062581
1.3195956338
1.3185846571
1.3168010279
1.3142045411
1.3108024996
1.3066619168
1.3019156404
1.2967574694
1.2914252780
1.2861760724
1.2812577850
1.2768853196
1.2732269426
1.2704015636
1.2684842542
1.2675165487
1.2668121501
1.0650909300
1.0629183511
1.0629186892
1.0629208671
1.0629281786
1.0629450287
1.0629765957
1.0630286105
1.0631063277
1.0632138473
1.0633534632
1.0635247198
1.0637239952
1.0639442857
1.0641754927
1.0644053600
1.0646205311
1.0648082801
1.0649580078
1.0650617332
1.0651146349
1.0649390261
1.2969355532
1.2969784343
1.2973567214
1.2980957753
1.2991620530
1.3005110367
1.3020914175
1.3038480756
1.3057251759
1.3076668153
1.3096165904
1.3115170042
1.3133075781
1.3149231070
1.3162919506
1.3173345867
1.3179638980
1.3180868372
1.3176090140
1.3164431009
1.3145200117
1.3118034261
1.3083049110
1.3040954163
1.2993104209
1.2941440396
1.2888314882
1.2836241788
1.2787623021
1.2744521261
1.2708536859
1.2680790281
1.2661981762
1.2652494615
1.2644134844
1.0660139747
1.0638833403
1.0638928068
1.0639132678
1.0639480420
1.0640015269
1.0640788006
1.0641853290
1.0643258715
1.0645037216
1.0647199941
1.0649726433
1.0652560235
1.0655607077
1.0658738577
1.0661802986
1.0664637965
1.0667090416
1.0669033774
1.0670374382
1.0671056535
1.0669472318
1.2972608962
1.2974195222
1.2977728493
1.2984614228
1.2994508557
1.3006961029
1.3021461393
1.3037471791
1.3054458261
1.3071895046
1.3089256694
1.3106008540
1.3121584606
1.3135367911
1.3146672223
1.3154728201
1.3158688353
1.3157646497
1.3150687808
1.3136976858
1.3115871439
1.3087067333
1.3050744224
1.3007669937
1.2959238108
1.2907395868
1.2854460537
1.2802872329
1.2754931668
1.2712589211
1.2677339706
1.2650216515
1.2631856457
1.2622602970
1.2612711330
1.0672188934
1.0651423199
1.0651625719
1.0652046227
1.0652717937
1.0653684327
1.0654994456
1.0656699185
1.0658839505
1.0661438083
1.0664491485
1.0667960054
1.0671763364
1.0675778904
1.0679846818
1.0683782251
1.0687390683
1.0690490674
1.0692933824
1.0694612699
1.0695465022
1.0694091091
1.2976066095
1.2978972513
1.2982175744
1.2988401889
1.2997309853
1.3008458868
1.3021358143
1.3035498925
1.3050384420
1.3065530292
1.3080452379
1.3094653853
1.3107600899
1.3118702388
1.3127292387
1.3132618984
1.3133853365
1.3130113734
1.3120520797
1.3104290311
1.3080848263
1.3049973258
1.3011933791
1.2967577326
1.2918349846
1.2866207184
1.2813423265
1.2762346859
1.2715154640
1.2673662727
1.2639240944
1.2612821138
1.2594967244
1.2585977440
1.2574515901
1.0687346925
1.0667250585
1.0667573761
1.0668235609
1.0669269010
1.0670716325
1.0672623918
1.0675037462
1.0677989509
1.0681490175
1.0685518809
1.0690013704
1.0694867565
1.0699926887
1.0704997907
1.0709860698
1.0714287281
1.0718067514
1.0721031957
1.0723061308
1.0724089079
1.0722959656
1.2979401649
1.2983721856
1.2986506763
1.2991906429
1.2999599961
1.3009178536
1.3020194243
1.3032188247
1.3044716211
1.3057343143
1.3069626174
1.3081099155
1.3091247788
1.3099490972
1.3105166746
1.3107526539
1.3105750958
1.3098980230
1.3086376487
1.3067221115
1.3041030033
1.3007690902
1.2967587478
1.2921668457
1.2871444547
1.2818881222
1.2766199164
1.2715638491
1.2669232272
1.2628643777
1.2595103730
1.2569433136
1.2552117837
1.2543408352
1.2530537049
1.0705913192
1.0686621284
1.0687073774
1.0687994053
1.0689414152
1.0691374486
1.0693917518
1.0697082092
1.0700890311
1.0705337435
1.0710383180
1.0715941506
1.0721876345
1.0728001882
1.0734089839
1.0739885353
1.0745127895
1.0749580379
1.0753055042
1.0755424283
1.0756621043
1.0755764056
1.2982287348
1.2988044536
1.2990316274
1.2994712651
1.3000955815
1.3008697317
1.3017561141
1.3027163217
1.3037128955
1.3047080601
1.3056614729
1.3065285478
1.3072581241
1.3077910482
1.3080594325
1.3079869474
1.3074913772
1.3064885520
1.3048993943
1.3026601300
1.2997336319
1.2961222478
1.2918784353
1.2871090836
1.2819725824
1.2766661426
1.2714052799
1.2664014358
1.2618418701
1.2578763046
1.2546130889
1.2521228863
1.2504464240
1.2496040718
1.2482114822
1.0728174443
1.0709825461
1.0710411592
1.0711598644
1.0713417140
1.0715904505
1.0719097844
1.0723027316
1.0727702420
1.0733101310
1.0739161996
1.0745772561
1.0752767451
1.0759928863
1.0766995388
1.0773679513
1.0779691162
1.0784769898
1.0788713854
1.0791391861
1.0792740713
1.0792175006
1.2984412537
1.2991561309
1.2993219865
1.2996428387
1.3000979099
1.3006616993
1.3013071060
1.3020059835
1.3027297446
1.3034471670
1.3041216020
1.3047092996
1.3051574683
1.3054036137
1.3053758174
1.3049942631
1.3041751069
1.3028355522
1.3009018353
1.2983198535
1.2950660445
1.2911588515
1.2866669850
1.2817106589
1.2764557433
1.2710992128
1.2658484650
1.2609006862
1.2564257563
1.2525560480
1.2493850234
1.2469721536
1.2453507323
1.2445368461
1.2430907009
1.0754386809
1.0737118352
1.0737838123
1.0739291549
1.0741506814
1.0744517085
1.0748352408
1.0753032195
1.0758551120
1.0764868154
1.0771898067
1.0779502508
1.0787487184
1.0795604515
1.0803563465
1.0811048271
1.0817744113
1.0823372075
1.0827721107
1.0830661438
1.0832138012
1.0831869731
1.2985507787
1.2993937902
1.2994878815
1.2996707919
1.2999317473
1.3002582037
1.3006371473
1.3010537003
1.3014902116
1.3019229588
1.3023188041
1.3026336574
1.3028111663
1.3027831347
1.3024712093
1.3017900368
1.3006528151
1.2989777651
1.2966971369
1.2937681165
1.2901828561
1.2859780112
1.2812400318
1.2761028687
1.2707391129
1.2653438780
1.2601145255
1.2552323716
1.2508489993
1.2470792928
1.2440022985
1.2416670914
1.2401003675
1.2393145953
1.2378774410
1.0784751210
1.0768694607
1.0769543926
1.0771255036
1.0773852753
1.0777364452
1.0781811157
1.0787199300
1.0793506533
1.0800670932
1.0808583302
1.0817079614
1.0825939401
1.0834889654
1.0843615446
1.0851779122
1.0859047248
1.0865127746
1.0869804878
1.0872954145
1.0874531390
1.0874548895
1.2985334568
1.2994874755
1.2994989837
1.2995241801
1.2995654541
1.2996269907
1.2997136074
1.2998268761
1.2999623377
1.3001049179
1.3002250005
1.3002771385
1.3001996025
1.2999162143
1.2993398527
1.2983776733
1.2969387237
1.2949420485
1.2923267302
1.2890628275
1.2851600578
1.2806747667
1.2757116776
1.2704177813
1.2649706034
1.2595610679
1.2543743361
1.2495744328
1.2452942167
1.2416315504
1.2386521070
1.2363958099
1.2348839028
1.2341260829
1.2327637200
1.0819389174
1.0804662998
1.0805634127
1.0807586794
1.0810541162
1.0814516967
1.0819523970
1.0825553260
1.0832563461
1.0840470672
1.0849142188
1.0858390814
1.0867974676
1.0877602117
1.0886942318
1.0895643756
1.0903361164
1.0909794007
1.0914724483
1.0918034375
1.0919689580
1.0919957073
1.2983670792
1.2994090854
1.2993269015
1.2991741154
1.2989694928
1.2987377485
1.2985053389
1.2982936114
1.2981137821
1.2979608585
1.2978090572
1.2976108271
1.2972974624
1.2967826952
1.2959684612
1.2947526459
1.2930391509
1.2907478288
1.2878254789
1.2842564438
1.2800693393
1.2753407926
1.2701931806
1.2647846485
1.2592949240
1.2539079106
1.2487944026
1.2441000993
1.2399392853
1.2363938516
1.2335176071
1.2313428806
1.2298867854
1.2291571792
1.2279310673
1.0858324342
1.0845027121
1.0846109332
1.0848281272
1.0851556839
1.0855945920
1.0861444479
1.0868025891
1.0875628149
1.0884145299
1.0893423248
1.0903256393
1.0913388860
1.0923519766
1.0933312580
1.0942411165
1.0950465015
1.0957167960
1.0962299214
1.0965742845
1.0967467516
1.0967918214
1.2980297966
1.2991308548
1.2989436996
1.2985923869
1.2981152207
1.2975611497
1.2969820552
1.2964225104
1.2959121533
1.2954578646
1.2950383931
1.2946036878
1.2940767535
1.2933593555
1.2923405142
1.2909072649
1.2889575548
1.2864121361
1.2832263239
1.2793997540
1.2749804926
1.2700649299
1.2647912344
1.2593257353
1.2538469619
1.2485288345
1.2435259558
1.2389652788
1.2349433168
1.2315275692
1.2287618319
1.2266725587
1.2252740992
1.2245733924
1.2235344007
1.0901459758
1.0889662860
1.0890843317
1.0893207795
1.0896761947
1.0901503190
1.0907410934
1.0914438598
1.0922502689
1.0931476573
1.0941189074
1.0951423684
1.0961920896
1.0972382717
1.0982479010
1.0991858897
1.1000172115
1.1007106571
1.1012432405
1.1016024737
1.1017837614
1.1018367818
1.2974954568
1.2986205268
1.2983172770
1.2977472780
1.2969713546
1.2960661361
1.2951125754
1.2941819917
1.2933254558
1.2925639057
1.2918817601
1.2912264724
1.2905117696
1.2896258313
1.2884430004
1.2868380586
1.2847022946
1.2819573987
1.2785676717
1.2745483546
1.2699664662
1.2649363978
1.2596090829
1.2541552845
1.2487487257
1.2435507277
1.2386985903
1.2343009124
1.2304379238
1.2271647597
1.2245172606
1.2225177501
1.2211791119
1.2205082002
1.2196927273
1.0948555149
1.0938296125
1.0939560910
1.0942088789
1.0945874789
1.0950900867
1.0957127010
1.0964484867
1.0972869729
1.0982137620
1.0992107259
1.1002561840
1.1013251656
1.1023896241
1.1034185375
1.1043783210
1.1052343227
1.1059543012
1.1065131156
1.1068953421
1.1070917415
1.1071384401
1.2967305765
1.2978384362
1.2974086881
1.2966014175
1.2955025963
1.2942194988
1.2928654787
1.2915420829
1.2903250362
1.2892518954
1.2883143343
1.2874577327
1.2865858963
1.2855720681
1.2842743472
1.2825539672
1.2802948125
1.2774192579
1.2739004233
1.2697684634
1.2651076092
1.2600472688
1.2547472316
1.2493786558
1.2441072073
1.2390798262
1.2344164195
1.2302085485
1.2265222908
1.2234027743
1.2208800131
1.2189738541
1.2176968618
1.2170565010
1.2164852321
1.0999212805
1.0990489974
1.0991825264
1.0994487367
1.0998457965
1.1003700341
1.1010152325
1.1017722763
1.1026287601
1.1035691261
1.1045752346
1.1056267561
1.1067013302
1.1077743249
1.1088181326
1.1098015625
1.1106904230
1.1114505412
1.1120526924
1.1124754623
1.1126998774
1.1127226288
1.2956947837
1.2967385983
1.2961733938
1.2951134830
1.2936720141
1.2919890799
1.2902132052
1.2884794332
1.2868914549
1.2855063110
1.2843249265
1.2832914409
1.2822994494
1.2812061807
1.2798520916
1.2780835854
1.2757761636
1.2728520646
1.2692921216
1.2651394842
1.2604925813
1.2554918680
1.2503016763
1.2450898296
1.2400115979
1.2351989677
1.2307555411
1.2267580562
1.2232610875
1.2203022898
1.2179079220
1.2160968275
1.2148821952
1.2142726313
1.2139515907
1.1052865101
1.1045634649
1.1047027971
1.1049797664
1.1053909190
1.1059303966
1.1065895455
1.1073569879
1.1082187716
1.1091590221
1.1101608916
1.1112070724
1.1122796675
1.1133592329
1.1144229761
1.1154428319
1.1163848600
1.1172116242
1.1178872982
1.1183805286
1.1186552830
1.1186347469
1.2943415741
1.2952707957
1.2945634159
1.2932407919
1.2914443486
1.2893479918
1.2871373228
1.2849836906
1.2830219470
1.2813316179
1.2799251682
1.2787466735
1.2776795544
1.2765642045
1.2752221605
1.2734836125
1.2712142737
1.2683346190
1.2648309603
1.2607562614
1.2562190768
1.2513664194
1.2463630579
1.2413706542
1.2365330752
1.2319681715
1.2277654712
1.2239898394
1.2206873176
1.2178906321
1.2156241866
1.2139070541
1.2127537617
1.2121744192
1.2120974611
1.1108764174
1.1102940070
1.1104381525
1.1107237326
1.1111453953
1.1116948222
1.1123607987
1.1131298690
1.1139871523
1.1149175724
1.1159071473
1.1169434805
1.1180151112
1.1191095527
1.1202101023
1.1212923264
1.1223220333
1.1232568589
1.1240515167
1.1246603356
1.1250208241
1.1249389186
1.2926258081
1.2933900057
1.2925364387
1.2909483946
1.2887952823
1.2862841936
1.2836385326
1.2810680157
1.2787414411
1.2767636794
1.2751610893
1.2738790453
1.2727910679
1.2717201017
1.2704675531
1.2688458256
1.2667088871
1.2639729209
1.2606263818
1.2567278482
1.2523913434
1.2477660542
1.2430139062
1.2382889219
1.2337240762
1.2294252288
1.2254709877
1.2219177639
1.2188061252
1.2161662621
1.2140223632
1.2123946877
1.2112995829
1.2107488618
1.2109007442
1.1165985285
1.1161442736
1.1162926064
1.1165853974
1.1170151725
1.1175709742
1.1182390519
1.1190042603
1.1198516509
1.1207683064
1.1217448907
1.1227759265
1.1238583640
1.1249883188
1.1261562231
1.1273414934
1.1285088943
1.1296092521
1.1305849667
1.1313721550
1.1318717383
1.1317159096
1.2905177571
1.2910725263
1.2900710076
1.2882237056
1.2857255380
1.2828140675
1.2797498040
1.2767818729
1.2741150435
1.2718818611
1.2701246337
1.2687913075
1.2677458463
1.2667932551
1.2657136409
1.2642998606
1.2623916793
1.2598977203
1.2568044793
1.2531714596
1.2491135697
1.2447785331
1.2403234370
1.2358947121
1.2316163642
1.2275854415
1.2238733507
1.2205316143
1.2175982426
1.2151029968
1.2130711710
1.2115248806
1.2104825542
1.2099577620
1.2103171922
1.1223439007
1.1220021811
1.1221544943
1.1224539793
1.1228909116
1.1234516621
1.1241201636
1.1248802010
1.1257178567
1.1266239412
1.1275956856
1.1286365810
1.1297538870
1.1309537747
1.1322345683
1.1335794102
1.1349508943
1.1362909374
1.1375270083
1.1385748793
1.1392918264
1.1390600668
1.2880161056
1.2883303929
1.2871793862
1.2850887210
1.2822724703
1.2789933715
1.2755468165
1.2722211446
1.2692579520
1.2668187227
1.2649629179
1.2636417781
1.2627098278
1.2619536495
1.2611309704
1.2600133492
1.2584237339
1.2562596853
1.2535015382
1.2502052934
1.2464829383
1.2424783365
1.2383432093
1.2342178302
1.2302202062
1.2264423354
1.2229522872
1.2198000924
1.2170237829
1.2146544152
1.2127193622
1.2112429898
1.2102458722
1.2097432655
1.2102854688
1.1279888705
1.1277419725
1.1278984256
1.1282048854
1.1286493770
1.1292157486
1.1298860544
1.1306438637
1.1314776102
1.1323835854
1.1333676428
1.1344443696
1.1356332548
1.1369519381
1.1384072698
1.1399857536
1.1416463011
1.1433193201
1.1449145574
1.1463278996
1.1473768958
1.1470825852
1.2851568387
1.2852202050
1.2839143687
1.2816072308
1.2785175990
1.2749248685
1.2711555863
1.2675356821
1.2643427787
1.2617668189
1.2598840514
1.2586486033
1.2579051295
1.2574212924
1.2569317217
1.2561854605
1.2549865883
1.2532187248
1.2508526365
1.2479374528
1.2445797576
1.2409185935
1.2371010923
1.2332637617
1.2295220791
1.2259668117
1.2226662903
1.2196720122
1.2170241308
1.2147562902
1.2128985696
1.2114777298
1.2105163871
1.2100313134
1.2107299876
1.1333990027
1.1332284220
1.1333893199
1.1337033908
1.1341565320
1.1347303764
1.1354057084
1.1361669024
1.1370062129
1.1379273157
1.1389469467
1.1400932399
1.1414003378
1.1428994773
1.1446075197
1.1465147611
1.1485753202
1.1507050129
1.1527914942
1.1547118951
1.1562712272
1.1559470242
1.2819945978
1.2818229259
1.2803498225
1.2778722075
1.2745799908
1.2707562936
1.2667535898
1.2629321374
1.2596026725
1.2569807946
1.2551570721
1.2540866735
1.2536034372
1.2534559843
1.2533561987
1.2530308524
1.2522647082
1.2509262093
1.2489747995
1.2464509961
1.2434550055
1.2401213234
1.2365940805
1.2330087330
1.2294815700
1.2261054989
1.2229520989
1.2200766556
1.2175229854
1.2153281693
1.2135253006
1.2121434695
1.2112071016
1.2107342399
1.2115629547
1.1384358237
1.1383236705
1.1384890818
1.1388109531
1.1392732136
1.1398556024
1.1405381978
1.1413070838
1.1421596341
1.1431086657
1.1441841080
1.1454305807
1.1469005403
1.1486432766
1.1506908075
1.1530426770
1.1556530662
1.1584256297
1.1612238138
1.1639052937
1.1663274469
1.1660317149
1.2784828320
1.2781244093
1.2764963946
1.2739615712
1.2705993772
1.2666800682
1.2625778146
1.2586841637
1.2553392459
1.2527801835
1.2511081537
1.2502769774
1.2501091960
1.2503357027
1.2506481499
1.2507537997
1.2504201877
1.2495017093
1.2479468017
1.2457873164
1.2431173244
1.2400677182
1.2367813346
1.2333949286
1.2300282446
1.2267788538
1.2237237203
1.2209234989
1.2184266319
1.2162740729
1.2145019648
1.2131415020
1.2122185984
1.2117522802
1.2126853931
1.1429666315
1.1428969383
1.1430664165
1.1433952039
1.1438653020
1.1444546225
1.1451426385
1.1459173168
1.1467814221
1.1477573941
1.1488893277
1.1502402104
1.1518843371
1.1538953773
1.1563312054
1.1592179234
1.1625367175
1.1662192200
1.1701626701
1.1742977575
1.1788187550
1.1786827979
1.2738435704
1.2734106198
1.2721385136
1.2699700943
1.2668306586
1.2630338292
1.2590081441
1.2551904640
1.2519540919
1.2495566618
1.2481076752
1.2475584412
1.2477213859
1.2483131779
1.2490103186
1.2495059713
1.2495550014
1.2490009875
1.2477832927
1.2459261172
1.2435181114
1.2406874052
1.2375766643
1.2343253667
1.2310582680
1.2278790550
1.2248712731
1.2221017789
1.2196240722
1.2174830671
1.2157177867
1.2143612056
1.2134403658
1.2129749761
1.2139882041
1.1468777326
1.1468374984
1.1470104394
1.1473448868
1.1478208002
1.1484139911
1.1491027887
1.1498761282
1.1507407160
1.1517265073
1.1528889464
1.1543057951
1.1560688069
1.1582709725
1.1609903686
1.1642737953
1.1681245402
1.1725002520
1.1773352175
1.1826334962
1.1888135698
1.1968764516
1.2159957113
1.2294360417
1.2762488557
1.2722616323
1.2703509495
1.2679078649
1.2646425678
1.2608030561
1.2567942655
1.2530472412
1.2499348629
1.2477131502
1.2464860509
1.2461953354
1.2466420301
1.2475315378
1.2485307576
1.2493250543
1.2496621471
1.2493788340
1.2484078347
1.2467668300
1.2445394521
1.2418511999
1.2388447024
1.2356624307
1.2324345391
1.2292712382
1.2262629936
1.2234830600
1.2209900117
1.2188325686
1.2170523497
1.2156837608
1.2147546258
1.2142850598
1.2153558396
1.1500856482
1.1500653795
1.1502420629
1.1505827528
1.1510653730
1.1516635217
1.1523540360
1.1531261579
1.1539895138
1.1549802744
1.1561639483
1.1576322635
1.1594948298
1.1618665786
1.1648517277
1.1685281334
1.1729365004
1.1780786469
1.1839352214
1.1905319224
1.1981222608
1.2070867206
1.2165024125
1.2292018106
1.2621588868
1.2656061585
1.2662562427
1.2650935023
1.2625764711
1.2592171082
1.2555494002
1.2520752732
1.2492061885
1.2472167664
1.2462170275
1.2461480402
1.2468082003
1.2479009786
1.2490931531
1.2500709237
1.2505817335
1.2504603217
1.2496354122
1.2481191713
1.2459901666
1.2433706963
1.2404026380
1.2372308036
1.2339902365
1.2307973098
1.2277491397
1.2249251467
1.2223887493
1.2201922078
1.2183794372
1.2169859758
1.2160401514
1.2155622674
1.2166699691
1.1525381773
1.1525318689
1.1527139621
1.1530643187
1.1535589375
1.1541691997
1.1548701694
1.1556506813
1.1565220098
1.1575246513
1.1587316721
1.1602456234
1.1621900322
1.1646964900
1.1678873778
1.1718582624
1.1766639039
1.1823094757
1.1887527679
1.1959307530
1.2038273253
1.2123706383
1.2209707016
1.2335364472
1.2572491636
1.2629897554
1.2645760946
1.2639685828
1.2618774807
1.2588743760
1.2555139152
1.2523092909
1.2496780904
1.2478969678
1.2470753638
1.2471537176
1.2479322655
1.2491194001
1.2503893291
1.2514359622
1.2520117995
1.2519529518
1.2511857671
1.2497171220
1.2476198193
1.2450117954
1.2420329237
1.2388291799
1.2355394975
1.2322856492
1.2291708253
1.2262801824
1.2236816782
1.2214308598
1.2195737114
1.2181467154
1.2171785355
1.2166895304
1.2178155736
1.1542087519
1.1542133669
1.1544037155
1.1547695403
1.1552850364
1.1559193386
1.1566453474
1.1574505150
1.1583460301
1.1593740972
1.1606117620
1.1621678416
1.1641742046
1.1667723815
1.1700948308
1.1742450908
1.1792805643
1.1851980311
1.1919254811
1.1993247630
1.2072029190
1.2152662763
1.2233607396
1.2352243899
1.2537405173
1.2610449844
1.2636937372
1.2637319503
1.2620878858
1.2594313811
1.2563555380
1.2533873274
1.2509478273
1.2493134341
1.2485931932
1.2487298659
1.2495303552
1.2507134665
1.2519658961
1.2529931817
1.2535554325
1.2534912798
1.2527246770
1.2512564378
1.2491523528
1.2465245744
1.2435096329
1.2402534484
1.2368978044
1.2335690855
1.2303759620
1.2274089105
1.2247401888
1.2224284808
1.2205217397
1.2190573483
1.2180642663
1.2175628690
1.2186907560
1.1550908577
1.1551052727
1.1553073725
1.1556957720
1.1562429722
1.1569157999
1.1576845291
1.1585341202
1.1594737612
1.1605445486
1.1618237725
1.1634220221
1.1654745332
1.1681277241
1.1715196767
1.1757589552
1.1809054497
1.1869524874
1.1938129143
1.2013087433
1.2091535725
1.2169367266
1.2246492756
1.2355727960
1.2510347179
1.2593377607
1.2630132148
1.2637541409
1.2625914031
1.2602840435
1.2574706156
1.2546975603
1.2523934189
1.2508382474
1.2501454335
1.2502654005
1.2510167389
1.2521325649
1.2533143182
1.2542798161
1.2547963157
1.2547037466
1.2539220930
1.2524445835
1.2503285799
1.2476792185
1.2446287237
1.2413221296
1.2379033598
1.2345028887
1.2312344667
1.2281936233
1.2254568189
1.2230858576
1.2211306940
1.2196296987
1.2186121996
1.2180986316
1.2192138874
1.1551943020
1.1552178660
1.1554353495
1.1558537190
1.1564439142
1.1571704249
1.1580004843
1.1589155119
1.1599208796
1.1610539336
1.1623887635
1.1640337362
1.1661233112
1.1688050517
1.1722201840
1.1764820726
1.1816561196
1.1877397649
1.1946450015
1.2021808868
1.2100211579
1.2176939796
1.2251961584
1.2354683244
1.2493743747
1.2581477920
1.2624886155
1.2637419591
1.2629479254
1.2609080531
1.2582863059
1.2556404977
1.2534046554
1.2518641677
1.2511405310
1.2511960479
1.2518641411
1.2528935136
1.2539995036
1.2549097467
1.2553955429
1.2552949800