<VTKFile type="UnstructuredGrid" version="0.1">
	<UnstructuredGrid>
		<Piece NumberOfPoints="13548" NumberOfCells="3387">
			<CellData>
				<DataArray type="Int32" Name="ghost" NumberOfComponents="1" Format="ascii">
1
1
1
1
1
1
1
1
1
1
1
1
1
1
1
1
1
1
1
1
1
1
1
1
1
1
1
1
1
1
1
1
1
1
1
1
1
1
1
1
1
1
1
1
1
1
1
1
1
1
1
1
1
1
1
1
1
1
0
0
0
0
0
0
0
0
0
0
0
0
0
0
0
0
0
0
0
0
1
1
0
0
0
0
0
0
0
0
0
0
0
0
0
0
0
0
0
0
0
0
0
0
0
0
0
0
0
0
0
0
0
0
0
1
1
0
0
0
0
0
0
0
0
0
0
0
0
0
0
0
0
0
0
0
0
1
1
0
0
0
0
0
0
0
0
0
0
0
0
0
0
0
0
0
0
0
0
0
0
0
0
0
0
0
0
0
0
0
0
0
1
1
0
0
0
0
0
0
0
0
0
0
0
0
0
0
0
0
0
0
0
0
1
1
0
0
0
0
0
0
0
0
0
0
0
0
0
0
0
0
0
0
0
0
0
0
0
0
0
0
0
0
0
0
0
0
0
1
1
0
0
0
0
0
0
0
0
0
0
0
0
0
0
0
0
0
0
0
0
1
1
0
0
0
0
0
0
0
0
0
0
0
0
0
0
0
0
0
0
0
0
0
0
0
0
0
0
0
0
0
0
0
0
0
1
1
0
0
0
0
0
0
0
0
0
0
0
0
0
0
0
0
0
0
0
0
1
1
0
0
0
0
0
0
0
0
0
0
0
0
0
0
0
0
0
0
0
0
0
0
0
0
0
0
0
0
0
0
0
0
0
1
1
0
0
0
0
0
0
0
0
0
0
0
0
0
0
0
0
0
0
0
0
1
1
0
0
0
0
0
0
0
0
0
0
0
0
0
0
0
0
0
0
0
0
0
0
0
0
0
0
0
0
0
0
0
0
0
1
1
0
0
0
0
0
0
0
0
0
0
0
0
0
0
0
0
0
0
0
0
1
1
0
0
0
0
0
0
0
0
0
0
0
0
0
0
0
0
0
0
0
0
0
0
0
0
0
0
0
0
0
0
0
0
0
1
1
0
0
0
0
0
0
0
0
0
0
0
0
0
0
0
0
0
0
0
0
1
1
0
0
0
0
0
0
0
0
0
0
0
0
0
0
0
0
0
0
0
0
0
0
0
0
0
0
0
0
0
0
0
0
0
1
1
0
0
0
0
0
0
0
0
0
0
0
0
0
0
0
0
0
0
0
0
1
1
0
0
0
0
0
0
0
0
0
0
0
0
0
0
0
0
0
0
0
0
0
0
0
0
0
0
0
0
0
0
0
0
0
1
1
0
0
0
0
0
0
0
0
0
0
0
0
0
0
0
0
0
0
0
0
1
1
0
0
0
0
0
0
0
0
0
0
0
0
0
0
0
0
0
0
0
0
0
0
0
0
0
0
0
0
0
0
0
0
0
1
1
0
0
0
0
0
0
0
0
0
0
0
0
0
0
0
0
0
0
0
0
1
1
0
0
0
0
0
0
0
0
0
0
0
0
0
0
0
0
0
0
0
0
0
0
0
0
0
0
0
0
0
0
0
0
0
1
1
0
0
0
0
0
0
0
0
0
0
0
0
0
0
0
0
0
0
0
0
1
1
0
0
0
0
0
0
0
0
0
0
0
0
0
0
0
0
0
0
0
0
0
0
0
0
0
0
0
0
0
0
0
0
0
1
1
0
0
0
0
0
0
0
0
0
0
0
0
0
0
0
0
0
0
0
0
1
1
0
0
0
0
0
0
0
0
0
0
0
0
0
0
0
0
0
0
0
0
0
0
0
0
0
0
0
0
0
0
0
0
0
1
1
0
0
0
0
0
0
0
0
0
0
0
0
0
0
0
0
0
0
0
0
1
1
0
0
0
0
0
0
0
0
0
0
0
0
0
0
0
0
0
0
0
0
0
0
0
0
0
0
0
0
0
0
0
0
0
1
1
0
0
0
0
0
0
0
0
0
0
0
0
0
0
0
0
0
0
0
0
1
1
0
0
0
0
0
0
0
0
0
0
0
0
0
0
0
0
0
0
0
0
0
0
0
0
0
0
0
0
0
0
0
0
0
1
1
0
0
0
0
0
0
0
0
0
0
0
0
0
0
0
0
0
0
0
0
1
1
0
0
0
0
0
0
0
0
0
0
0
0
0
0
0
0
0
0
0
0
0
0
0
0
0
0
0
0
0
0
0
0
0
1
1
0
0
0
0
0
0
0
0
0
0
0
0
0
0
0
0
0
0
0
0
1
1
0
0
0
0
0
0
0
0
0
0
0
0
0
0
0
0
0
0
0
0
0
0
0
0
0
0
0
0
0
0
0
0
0
1
1
0
0
0
0
0
0
0
0
0
0
0
0
0
0
0
0
0
0
0
0
1
1
0
0
0
0
0
0
0
0
0
0
0
0
0
0
0
0
0
0
0
0
0
0
0
0
0
0
0
0
0
0
0
0
0
1
1
0
0
0
0
0
0
0
0
0
0
0
0
0
0
0
0
0
0
0
0
1
1
0
0
0
0
0
0
0
0
0
0
0
0
0
0
0
0
0
0
0
0
0
0
0
0
0
0
0
0
0
0
0
0
0
1
1
0
0
0
0
0
0
0
0
0
0
0
0
0
0
0
0
0
0
0
0
1
1
0
0
0
0
0
0
0
0
0
0
0
0
0
0
0
0
0
0
0
0
0
0
0
0
0
0
0
0
0
0
0
0
0
1
1
0
0
0
0
0
0
0
0
0
0
0
0
0
0
0
0
0
0
0
0
1
1
0
0
0
0
0
0
0
0
0
0
0
0
0
0
0
0
0
0
0
0
0
0
0
0
0
0
0
0
0
0
0
0
0
1
1
0
0
0
0
0
0
0
0
0
0
0
0
0
0
0
0
0
0
0
0
1
1
0
0
0
0
0
0
0
0
0
0
0
0
0
0
0
0
0
0
0
0
0
0
0
0
0
0
0
0
0
0
0
0
0
1
1
0
0
0
0
0
0
0
0
0
0
0
0
0
0
0
0
0
0
0
0
1
1
0
0
0
0
0
0
0
0
0
0
0
0
0
0
0
0
0
0
0
0
0
0
0
0
0
0
0
0
0
0
0
0
0
1
1
0
0
0
0
0
0
0
0
0
0
0
0
0
0
0
0
0
0
0
0
1
1
0
0
0
0
0
0
0
0
0
0
0
0
0
0
0
0
0
0
0
0
0
0
0
0
0
0
0
0
0
0
0
0
0
1
1
0
0
0
0
0
0
0
0
0
0
0
0
0
0
0
0
0
0
0
0
0
1
1
0
0
0
0
0
0
0
0
0
0
0
0
0
0
0
0
0
0
0
0
0
0
0
0
0
0
0
0
0
0
0
0
0
0
1
1
0
0
0
0
0
0
0
0
0
0
0
0
0
0
0
0
0
0
0
0
0
0
0
0
0
0
0
0
0
0
0
0
0
0
0
0
0
0
0
0
0
0
0
0
0
0
0
0
0
0
0
0
0
0
0
0
0
1
1
0
0
0
0
0
0
0
0
0
0
0
0
0
0
0
0
0
0
0
0
0
0
0
0
0
0
0
0
0
0
0
0
0
0
0
0
0
0
0
0
0
0
0
0
0
0
0
0
0
0
0
0
0
0
0
0
0
1
1
0
0
0
0
0
0
0
0
0
0
0
0
0
0
0
0
0
0
0
0
0
0
0
0
0
0
0
0
0
0
0
0
0
0
0
0
0
0
0
0
0
0
0
0
0
0
0
0
0
0
0
0
0
0
0
0
0
1
1
0
0
0
0
0
0
0
0
0
0
0
0
0
0
0
0
0
0
0
0
0
0
0
0
0
0
0
0
0
0
0
0
0
0
0
0
0
0
0
0
0
0
0
0
0
0
0
0
0
0
0
0
0
0
0
0
0
1
1
0
0
0
0
0
0
0
0
0
0
0
0
0
0
0
0
0
0
0
0
0
0
0
0
0
0
0
0
0
0
0
0
0
0
0
0
0
0
0
0
0
0
0
0
0
0
0
0
0
0
0
0
0
0
0
0
0
1
1
0
0
0
0
0
0
0
0
0
0
0
0
0
0
0
0
0
0
0
0
0
0
0
0
0
0
0
0
0
0
0
0
0
0
0
0
0
0
0
0
0
0
0
0
0
0
0
0
0
0
0
0
0
0
0
0
0
1
1
0
0
0
0
0
0
0
0
0
0
0
0
0
0
0
0
0
0
0
0
0
0
0
0
0
0
0
0
0
0
0
0
0
0
0
0
0
0
0
0
0
0
0
0
0
0
0
0
0
0
0
0
0
0
0
0
0
1
1
0
0
0
0
0
0
0
0
0
0
0
0
0
0
0
0
0
0
0
0
0
0
0
0
0
0
0
0
0
0
0
0
0
0
0
0
0
0
0
0
0
0
0
0
0
0
0
0
0
0
0
0
0
0
0
0
0
1
1
0
0
0
0
0
0
0
0
0
0
0
0
0
0
0
0
0
0
0
0
0
0
0
0
0
0
0
0
0
0
0
0
0
0
0
0
0
0
0
0
0
0
0
0
0
0
0
0
0
0
0
0
0
0
0
0
0
1
1
0
0
0
0
0
0
0
0
0
0
0
0
0
0
0
0
0
0
0
0
0
0
0
0
0
0
0
0
0
0
0
0
0
0
0
0
0
0
0
0
0
0
0
0
0
0
0
0
0
0
0
0
0
0
0
0
0
1
1
0
0
0
0
0
0
0
0
0
0
0
0
0
0
0
0
0
0
0
0
0
1
1
0
0
0
0
0
0
0
0
0
0
0
0
0
0
0
0
0
0
0
0
0
0
0
0
0
0
0
0
0
0
0
0
0
0
1
1
0
0
0
0
0
0
0
0
0
0
0
0
0
0
0
0
0
0
0
0
1
1
0
0
0
0
0
0
0
0
0
0
0
0
0
0
0
0
0
0
0
0
0
0
0
0
0
0
0
0
0
0
0
0
0
1
1
0
0
0
0
0
0
0
0
0
0
0
0
0
0
0
0
0
0
0
0
1
1
0
0
0
0
0
0
0
0
0
0
0
0
0
0
0
0
0
0
0
0
0
0
0
0
0
0
0
0
0
0
0
0
0
1
1
0
0
0
0
0
0
0
0
0
0
0
0
0
0
0
0
0
0
0
0
1
1
0
0
0
0
0
0
0
0
0
0
0
0
0
0
0
0
0
0
0
0
0
0
0
0
0
0
0
0
0
0
0
0
0
1
1
0
0
0
0
0
0
0
0
0
0
0
0
0
0
0
0
0
0
0
0
1
1
0
0
0
0
0
0
0
0
0
0
0
0
0
0
0
0
0
0
0
0
0
0
0
0
0
0
0
0
0
0
0
0
0
1
1
0
0
0
0
0
0
0
0
0
0
0
0
0
0
0
0
0
0
0
0
1
1
0
0
0
0
0
0
0
0
0
0
0
0
0
0
0
0
0
0
0
0
0
0
0
0
0
0
0
0
0
0
0
0
0
1
1
0
0
0
0
0
0
0
0
0
0
0
0
0
0
0
0
0
0
0
0
1
1
0
0
0
0
0
0
0
0
0
0
0
0
0
0
0
0
0
0
0
0
0
0
0
0
0
0
0
0
0
0
0
0
0
1
1
0
0
0
0
0
0
0
0
0
0
0
0
0
0
0
0
0
0
0
0
1
1
0
0
0
0
0
0
0
0
0
0
0
0
0
0
0
0
0
0
0
0
0
0
0
0
0
0
0
0
0
0
0
0
0
1
1
0
0
0
0
0
0
0
0
0
0
0
0
0
0
0
0
0
0
0
0
1
1
0
0
0
0
0
0
0
0
0
0
0
0
0
0
0
0
0
0
0
0
0
0
0
0
0
0
0
0
0
0
0
0
0
1
1
0
0
0
0
0
0
0
0
0
0
0
0
0
0
0
0
0
0
0
0
1
1
0
0
0
0
0
0
0
0
0
0
0
0
0
0
0
0
0
0
0
0
0
0
0
0
0
0
0
0
0
0
0
0
0
1
1
0
0
0
0
0
0
0
0
0
0
0
0
0
0
0
0
0
0
0
0
1
1
0
0
0
0
0
0
0
0
0
0
0
0
0
0
0
0
0
0
0
0
0
0
0
0
0
0
0
0
0
0
0
0
0
1
1
0
0
0
0
0
0
0
0
0
0
0
0
0
0
0
0
0
0
0
0
1
1
0
0
0
0
0
0
0
0
0
0
0
0
0
0
0
0
0
0
0
0
0
0
0
0
0
0
0
0
0
0
0
0
0
1
1
0
0
0
0
0
0
0
0
0
0
0
0
0
0
0
0
0
0
0
0
1
1
0
0
0
0
0
0
0
0
0
0
0
0
0
0
0
0
0
0
0
0
0
0
0
0
0
0
0
0
0
0
0
0
0
1
1
0
0
0
0
0
0
0
0
0
0
0
0
0
0
0
0
0
0
0
0
1
1
0
0
0
0
0
0
0
0
0
0
0
0
0
0
0
0
0
0
0
0
0
0
0
0
0
0
0
0
0
0
0
0
0
1
1
0
0
0
0
0
0
0
0
0
0
0
0
0
0
0
0
0
0
0
0
1
1
0
0
0
0
0
0
0
0
0
0
0
0
0
0
0
0
0
0
0
0
0
0
0
0
0
0
0
0
0
0
0
0
0
1
1
0
0
0
0
0
0
0
0
0
0
0
0
0
0
0
0
0
0
0
0
1
1
0
0
0
0
0
0
0
0
0
0
0
0
0
0
0
0
0
0
0
0
0
0
0
0
0
0
0
0
0
0
0
0
0
1
1
0
0
0
0
0
0
0
0
0
0
0
0
0
0
0
0
0
0
0
0
1
1
0
0
0
0
0
0
0
0
0
0
0
0
0
0
0
0
0
0
0
0
0
0
0
0
0
0
0
0
0
0
0
0
0
1
1
0
0
0
0
0
0
0
0
0
0
0
0
0
0
0
0
0
0
0
0
1
1
0
0
0
0
0
0
0
0
0
0
0
0
0
0
0
0
0
0
0
0
0
0
0
0
0
0
0
0
0
0
0
0
0
1
1
0
0
0
0
0
0
0
0
0
0
0
0
0
0
0
0
0
0
0
0
1
1
0
0
0
0
0
0
0
0
0
0
0
0
0
0
0
0
0
0
0
0
0
0
0
0
0
0
0
0
0
0
0
0
0
1
1
0
0
0
0
0
0
0
0
0
0
0
0
0
0
0
0
0
0
0
0
1
1
0
0
0
0
0
0
0
0
0
0
0
0
0
0
0
0
0
0
0
0
0
0
0
0
0
0
0
0
0
0
0
0
0
1
1
0
0
0
0
0
0
0
0
0
0
0
0
0
0
0
0
0
0
0
0
1
1
0
0
0
0
0
0
0
0
0
0
0
0
0
0
0
0
0
0
0
0
0
0
0
0
0
0
0
0
0
0
0
0
0
1
1
0
0
0
0
0
0
0
0
0
0
0
0
0
0
0
0
0
0
0
0
1
1
0
0
0
0
0
0
0
0
0
0
0
0
0
0
0
0
0
0
0
0
0
0
0
0
0
0
0
0
0
0
0
0
0
1
1
1
1
1
1
1
1
1
1
1
1
1
1
1
1
1
1
1
1
1
1
1
1
1
1
1
1
1
1
1
1
1
1
1
1
1
1
1
1
1
1
1
1
1
1
1
1
1
1
1
1
1
1
1
1
1
1
				</DataArray>
				<DataArray type="Float64" Name="h" NumberOfComponents="1" Format="ascii">
1.2558920446
1.2524957298
1.2522215996
1.2516893324
1.2509310662
1.2499929244
1.2489329061
1.2478179252
1.2467184163
1.2457028267
1.2448313448
1.2441492950
1.2436823817
1.2434336061
1.2433833159
1.2434925841
1.2437086181
1.2439727238
1.2442283552
1.2444273811
1.2445356310
1.2445356310
1.1112154031
1.1099463563
1.1103769956
1.1112483158
1.1125858206
1.1144388575
1.1168896603
1.1200607960
1.1241171225
1.1292590806
1.1357032454
1.1436447498
1.1532004095
1.1643406094
1.1768306706
1.1902109825
1.2038435904
1.2170255787
1.2291284195
1.2397116909
1.2485722790
1.2557224415
1.2613266668
1.2656286056
1.2688893749
1.2713486254
1.2732052884
1.2746125691
1.2756822535
1.2764921441
1.2770942661
1.2775225202
1.2777980370
1.2779329543
1.2779329543
1.2524957298
1.2491201819
1.2489237879
1.2485440697
1.2480074019
1.2473514715
1.2466234322
1.2458773708
1.2451694936
1.2445533114
1.2440742265
1.2437638773
1.2436362848
1.2436856062
1.2438868002
1.2441992024
1.2445717003
1.2449499844
1.2452834433
1.2455300853
1.2456607455
1.2445356310
1.1099463563
1.1086910573
1.1091550056
1.1100971423
1.1115511757
1.1135782616
1.1162751396
1.1197797747
1.1242701816
1.1299525914
1.1370348001
1.1456805816
1.1559469375
1.1677177258
1.1806597763
1.1942301726
1.2077528119
1.2205484184
1.2320662857
1.2419705014
1.2501569935
1.2567096803
1.2618306245
1.2657716606
1.2687826216
1.2710822298
1.2728461039
1.2742062053
1.2752571923
1.2760642701
1.2766709429
1.2771058087
1.2773869720
1.2775250245
1.2779329543
1.2526816922
1.2493279503
1.2491351693
1.2487623894
1.2482353869
1.2475909191
1.2468748639
1.2461397114
1.2454398455
1.2448268972
1.2443445761
1.2440233015
1.2438766187
1.2438991446
1.2440672832
1.2443426923
1.2446772143
1.2450197919
1.2453230152
1.2455477074
1.2456668193
1.2445813061
1.1096187778
1.1083822458
1.1088578108
1.1098230322
1.1113113289
1.1133832962
1.1161343494
1.1196994734
1.1242509075
1.1299852633
1.1370966668
1.1457328485
1.1559367611
1.1675868811
1.1803595595
1.1937377425
1.2070812519
1.2197447004
1.2311979057
1.2411075149
1.2493571905
1.2560111132
1.2612511923
1.2653130514
1.2684357314
1.2708321694
1.2726759883
1.2740995888
1.2751993795
1.2760428232
1.2766756635
1.2771284268
1.2774206998
1.2775640623
1.2779712866
1.2530408750
1.2497290496
1.2495433235
1.2491840765
1.2486758903
1.2480536743
1.2473607848
1.2466465768
1.2459618792
1.2453546812
1.2448654404
1.2445222632
1.2443378301
1.2443077009
1.2444111118
1.2446142313
1.2448746226
1.2451475243
1.2453917389
1.2455735757
1.2456701312
1.2446633519
1.1089698669
1.1077702592
1.1082689953
1.1092801973
1.1108365935
1.1129975168
1.1158555853
1.1195397257
1.1242106991
1.1300463115
1.1372143413
1.1458320003
1.1559158499
1.1673344297
1.1797819111
1.1927893955
1.2057839731
1.2181848020
1.2295024999
1.2394113125
1.2477739379
1.2546180878
1.2600870439
1.2643844352
1.2677273536
1.2703164686
1.2723206804
1.2738726439
1.2750717913
1.2759897633
1.2766765573
1.2771664162
1.2774818101
1.2776362521
1.2780413953
1.2535479939
1.2502949481
1.2501193955
1.2497796288
1.2492984448
1.2487080128
1.2480479859
1.2473631607
1.2466992536
1.2460990769
1.2455985284
1.2452225388
1.2449826922
1.2448760064
1.2448858204
1.2449847397
1.2451384501
1.2453111292
1.2454704357
1.2455905596
1.2456546082
1.2447646535
1.1080115973
1.1068659307
1.1073992331
1.1084788711
1.1101362724
1.1124285456
1.1154437758
1.1193015954
1.1241457580
1.1301269302
1.1373757366
1.1459672793
1.1558824664
1.1669768237
1.1789685025
1.1914527559
1.2039470263
1.2159594879
1.2270607657
1.2369417338
1.2454418270
1.2525413611
1.2583300644
1.2629649669
1.2666296058
1.2695046755
1.2717502366
1.2734977793
1.2748500676
1.2758841434
1.2766558014
1.2772044888
1.2775567823
1.2777289777
1.2781291455
1.2541647179
1.2509828379
1.2508201486
1.2505049541
1.2500576904
1.2495069401
1.2488875691
1.2482385622
1.2475992138
1.2470059362
1.2464890976
1.2460698914
1.2457587665
1.2455547361
1.2454463301
1.2454141440
1.2454338786
1.2454807354
1.2455333647
1.2455758485
1.2455989487
1.2448621273
1.1067599939
1.1056837152
1.1062627231
1.1074325647
1.1092224687
1.1116860150
1.1149046927
1.1189854464
1.1240498085
1.1302142029
1.1375638273
1.1461238245
1.1558340509
1.1665357558
1.1779746567
1.1898185198
1.2016878735
1.2131958947
1.2239897573
1.2337898745
1.2424179533
1.2498040281
1.2559749729
1.2610291047
1.2651048039
1.2683536906
1.2709209973
1.2729338409
1.2744971565
1.2756935170
1.2765852979
1.2772181409
1.2776236473
1.2778215749
1.2782111721
1.2548398047
1.2517362044
1.2515885907
1.2513021124
1.2508942977
1.2503893645
1.2498164412
1.2492076654
1.2485949031
1.2480073124
1.2474691448
1.2469976210
1.2466022042
1.2462844267
1.2460388497
1.2458551484
1.2457203131
1.2456219848
1.2455513308
1.2455038852
1.2454794573
1.2449293741
1.1052332228
1.1042399247
1.1048753933
1.1061562187
1.1081081926
1.1107796923
1.1142432322
1.1185895977
1.1239133916
1.1302912354
1.1377575392
1.1462836809
1.1557670422
1.1660351254
1.1768622918
1.1879897157
1.1991431691
1.2100471096
1.2204370455
1.2300778602
1.2387864244
1.2464487707
1.2530272338
1.2585536740
1.2631109061
1.2668114003
1.2697775669
1.2721267378
1.2739629122
1.2753727966
1.2764250264
1.2771716790
1.2776498215
1.2778830777
1.2782522044
1.2555102797
1.2524865545
1.2523557670
1.2521012431
1.2517371015
1.2512825137
1.2507600875
1.2501943321
1.2496090143
1.2490255702
1.2484619311
1.2479314116
1.2474427852
1.2470005564
1.2466058502
1.2462579824
1.2459558279
1.2457001503
1.2454954972
1.2453499384
1.2452734849
1.2449400117
1.1034494426
1.1025507553
1.1032528635
1.1046640507
1.1068050925
1.1097171669
1.1134612273
1.1181085211
1.1237227424
1.1303369099
1.1379322582
1.1464263952
1.1556762693
1.1654976076
1.1756924099
1.1860700530
1.1964546182
1.2066785895
1.2165709810
1.2259550321
1.2346605537
1.2425444444
1.2495116957
1.2555264541
1.2606086700
1.2648217968
1.2682558423
1.2710106338
1.2731838149
1.2748628708
1.2761208793
1.2770155326
1.2775891039
1.2778690671
1.2782014836
1.2561030018
1.2531555815
1.2530429948
1.2528229377
1.2525056838
1.2521047963
1.2516357728
1.2511149848
1.2505577655
1.2499777274
1.2493866137
1.2487941364
1.2482087477
1.2476382405
1.2470904760
1.2465744153
1.2461007149
1.2456832033
1.2453400131
1.2450923850
1.2449615156
1.2448697809
1.1014237639
1.1006293916
1.1014075425
1.1029666466
1.1053205807
1.1085011310
1.1125550889
1.1175311153
1.1234589693
1.1303261060
1.1380609168
1.1465303298
1.1555554093
1.1649429374
1.1745200437
1.1841550136
1.1937568468
1.2032548623
1.2125692875
1.2215913408
1.2301825258
1.2381915068
1.2454817931
1.2519566997
1.2575714553
1.2623328205
1.2662884195
1.2695109712
1.2720839440
1.2740899521
1.2756028033
1.2766835600
1.2773784597
1.2777182054
1.2779890044
1.2565377980
1.2536588352
1.2535655816
1.2533820567
1.2531143369
1.2527699563
1.2523569189
1.2518832174
1.2513557273
1.2507804443
1.2501633095
1.2495108784
1.2488316332
1.2481367691
1.2474406655
1.2467613763
1.2461205643
1.2455443597
1.2450640722
1.2447143828
1.2445286175
1.2446981184
1.0991654729
1.0984833651
1.0993459537
1.1010682255
1.1036550675
1.1071266989
1.1115134172
1.1168388653
1.1230969832
1.1302294682
1.1381144037
1.1465732244
1.1553969890
1.1643865425
1.1733906853
1.1823253082
1.1911675291
1.1999270000
1.2086059950
1.2171668387
1.2255182251
1.2335233414
1.2410265136
1.2478855359
1.2539965249
1.2593065612
1.2638125250
1.2675497217
1.2705776565
1.2729660644
1.2747835722
1.2760905858
1.2769347673
1.2773485991
1.2775219208
1.2567322428
1.2539109227
1.2538380580
1.2536930239
1.2534774449
1.2531925574
1.2528386925
1.2524154677
1.2519215302
1.2513556906
1.2507186244
1.2500142122
1.2492512130
1.2484440826
1.2476131030
1.2467843441
1.2459890833
1.2452643494
1.2446536871
1.2442052423
1.2439655744
1.2444095500
1.0966753438
1.0961120063
1.0970661178
1.0989638897
1.1017990903
1.1055785414
1.1103143597
1.1160036685
1.1226039688
1.1300125377
1.1380611680
1.1465319413
1.1551919186
1.1638385227
1.1723382238
1.1806429278
1.1887804532
1.1968220022
1.2048377857
1.2128573892
1.2208457368
1.2287004499
1.2362713392
1.2433926283
1.2499151177
1.2557301877
1.2607798147
1.2650529119
1.2685744472
1.2713913605
1.2735589684
1.2751309673
1.2761523179
1.2766547701
1.2766820930
1.2566068951
1.2538309329
1.2537796012
1.2536752459
1.2535148899
1.2532933542
1.2530033041
1.2526361841
1.2521828224
1.2516354009
1.2509899058
1.2502479577
1.2494186601
1.2485193037
1.2475750767
1.2466185240
1.2456886112
1.2448313080
1.2441010122
1.2435592734
1.2432674353
1.2439925920
1.0939417926
1.0935027087
1.0945538503
1.0966359605
1.0997297618
1.1038276216
1.1089228640
1.1149858102
1.1219381744
1.1296352799
1.1378672755
1.1463828373
1.1549300954
1.1633045066
1.1713859083
1.1791515191
1.1866639204
1.1940375679
1.2013942367
1.2088212663
1.2163411782
1.2238993216
1.2313731608
1.2385981002
1.2454002023
1.2516271186
1.2571683879
1.2619614964
1.2659875506
1.2692600830
1.2718112655
1.2736800727
1.2749029118
1.2755070529
1.2753269110
1.2560914135
1.2533484730
1.2533200345
1.2532590333
1.2531578472
1.2530049064
1.2527853735
1.2524828649
1.2520808968
1.2515656050
1.2509287998
1.2501701065
1.2492988124
1.2483343288
1.2473054163
1.2462491665
1.2452098650
1.2442399940
1.2434030652
1.2427740510
1.2424314618
1.2434380261
1.0909373521
1.0906275112
1.0917793633
1.0940505575
1.0974073783
1.1018280070
1.1072879231
1.1137318208
1.1210474292
1.1290511654
1.1374958928
1.1461015859
1.1546007085
1.1627867271
1.1705483443
1.1778789052
1.1848625534
1.1916412234
1.1983722864
1.2051881533
1.2121635724
1.2192966056
1.2265079329
1.2336567986
1.2405682710
1.2470651029
1.2529946870
1.2582444745
1.2627462679
1.2664709530
1.2694173107
1.2716002575
1.2730402807
1.2737552012
1.2732954364
1.2551308758
1.2524097155
1.2524058165
1.2523914733
1.2523544767
1.2522770163
1.2521370353
1.2519107511
1.2515748934
1.2511100718
1.2505042919
1.2497552383
1.2488719719
1.2478750424
1.2467951749
1.2456717827
1.2445517520
1.2434912376
1.2425608013
1.2418490731
1.2414554344
1.2427375342
1.0876153771
1.0874399368
1.0886941056
1.0911543163
1.0947720362
1.0995135795
1.1053396271
1.1121720507
1.1198672849
1.1282057920
1.1369062847
1.1456625688
1.1541922546
1.1622850385
1.1698337978
1.1768405472
1.1834010451
1.1896726035
1.1958346954
1.2020517057
1.2084409596
1.2150506174
1.2218515297
1.2287430605
1.2355713445
1.2421564806
1.2483208449
1.2539109175
1.2588101005
1.2629413954
1.2662616616
1.2687525178
1.2704104507
1.2712380203
1.2704216480
1.2536907048
1.2509818539
1.2510044143
1.2510406351
1.2510738736
1.2510803357
1.2510311133
1.2508954841
1.2506438710
1.2502517472
1.2497034853
1.2489946446
1.2481334020
1.2471402375
1.2460460328
1.2448900961
1.2437189257
1.2425891190
1.2415758518
1.2407819306
1.2403332830
1.2418795845
1.0839052824
1.0838703469
1.0852263702
1.0878701953
1.0917397397
1.0967947047
1.1029866548
1.1102191214
1.1183203896
1.1270370214
1.1360545458
1.1450401671
1.1536945476
1.1617999463
1.1692485474
1.1760452952
1.1822908906
1.1881499809
1.1938143284
1.1994690477
1.2052630541
1.2112868593
1.2175603697
1.2240307761
1.2305813088
1.2370503113
1.2432557950
1.2490190649
1.2541835748
1.2586256066
1.2622559039
1.2650158438
1.2668706661
1.2678019372
1.2665574779
1.2517606116
1.2490565573
1.2491076674
1.2491987516
1.2493089767
1.2494089138
1.2494632296
1.2494347143
1.2492878722
1.2489932610
1.2485315660
1.2478957913
1.2470923488
1.2461402668
1.2450686535
1.2439141713
1.2427197333
1.2415387197
1.2404479273
1.2395650544
1.2390510499
1.2408455022
1.0797098345
1.0798233277
1.0812790909
1.0840954869
1.0882006888
1.0935570721
1.1001159159
1.1077684583
1.1163178217
1.1254769043
1.1348959111
1.1442113681
1.1531017047
1.1613362025
1.1688013865
1.1755010494
1.1815372252
1.1870777899
1.1923210691
1.1974649045
1.2026799796
1.2080893692
1.2137553055
1.2196723617
1.2257685908
1.2319158351
1.2379472890
1.2436783779
1.2489276262
1.2535332315
1.2573622225
1.2603136253
1.2623171885
1.2633293308
1.2616053651
1.2493568905
1.2466518928
1.2467336374
1.2468839260
1.2470780618
1.2472814129
1.2474526894
1.2475486194
1.2475280685
1.2473567158
1.2470112797
1.2464815525
1.2457711114
1.2448960334
1.2438816735
1.2427594690
1.2415653737
1.2403453378
1.2391738282
1.2381839332
1.2375838849
1.2396065043
1.0749062363
1.0751788454
1.0767316927
1.0797038884
1.0840215942
1.0896645574
1.0965961780
1.1047026759
1.1137640031
1.1234567675
1.1333896728
1.1431602953
1.1524162604
1.1609066629
1.1685075379
1.1752191437
1.1811440668
1.1864528727
1.1913486441
1.1960376788
1.2007053331
1.2054980853
1.2105113118
1.2157808010
1.2212792420
1.2269193795
1.2325639156
1.2380407486
1.2431618707
1.2477423723
1.2516153387
1.2546420834
1.2567178045
1.2577729683
1.2555545959
1.2465220594
1.2438117086
1.2439259273
1.2441393213
1.2444237400
1.2447398598
1.2450409432
1.2452780562
1.2454046017
1.2453812494
1.2451802690
1.2447873869
1.2442021289
1.2434360503
1.2425087771
1.2414439556
1.2402670306
1.2390115475
1.2377440420
1.2366122869
1.2358889126
1.2381164988
1.0693498873
1.0697959700
1.0714454434
1.0745517677
1.0790530575
1.0849681592
1.0922886810
1.1009035541
1.1105693803
1.1209197841
1.1315108774
1.1418884993
1.1516578296
1.1605394156
1.1683946231
1.1752197481
1.1811198707
1.1862708655
1.1908822016
1.1951679019
1.1993241800
1.2035140424
1.2078571094
1.2124216536
1.2172192948
1.2222036609
1.2272740480
1.2322843968
1.2370577019
1.2414040422
1.2451382370
1.2480954633
1.2501436658
1.2511912321
1.2485140315
1.2433231317
1.2406038857
1.2407518940
1.2410312950
1.2414109765
1.2418475169
1.2422892908
1.2426820968
1.2429739787
1.2431203366
1.2430883497
1.2428586720
1.2424254498
1.2417941070
1.2409765952
1.2399862362
1.2388342089
1.2375356196
1.2361407120
1.2348079500
1.2338969637
1.2363036338
1.0628863673
1.0635246890
1.0652780109
1.0684938436
1.0731468251
1.0793254757
1.0870687637
1.0962749683
1.1066733007
1.1178423191
1.1292689183
1.1404300642
1.1508745534
1.1602858911
1.1685081353
1.1755356601
1.1814807340
1.1865299336
1.1909035324
1.1948254510
1.1985019715
1.2021085912
1.2057822194
1.2096150200
1.2136494080
1.2178748100
1.2222274807
1.2265944221
1.2308227548
1.2347346405
1.2381447506
1.2408785158
1.2427894714
1.2437724775
1.2407280008
1.2398481356
1.2371170216
1.2372993302
1.2376460763
1.2381237568
1.2386855335
1.2392755221
1.2398346782
1.2403057704
1.2406386010
1.2407945230
1.2407480116
1.2404864306
1.2400074358
1.2393133815
1.2384047439
1.2372744119
1.2359115850
1.2343374428
1.2327097175
1.2315016811
1.2340591928
1.0553678760
1.0562221302
1.0581044479
1.0614058145
1.0661815456
1.0726307441
1.0808596225
1.0907783397
1.1020784192
1.1142647078
1.1267328755
1.1388707248
1.1501561556
1.1602287037
1.1689153170
1.1762136397
1.1822506461
1.1872313420
1.1913932341
1.1949742973
1.1981923246
1.2012337743
1.2042483475
1.2073452455
1.2105896977
1.2139997184
1.2175444285
1.2211449306
1.2246796094
1.2279954402
1.2309233330
1.2332962592
1.2349687750
1.2358336182
1.2325614809
1.2362007074
1.2334552499
1.2336712785
1.2340845642
1.2346598546
1.2353476644
1.2360885686
1.2368191824
1.2374771343
1.2380063235
1.2383615394
1.2385099527
1.2384307127
1.2381120433
1.2375447461
1.2367138500
1.2355895383
1.2341257869
1.2322952649
1.2302283848
1.2285347923
1.2312125598
1.0466540257
1.0477533482
1.0498280800
1.0532012218
1.0580902029
1.0648543642
1.0736811995
1.0844855341
1.0969017711
1.1103359080
1.1240672037
1.1373740286
1.1496514487
1.1604921634
1.1697106161
1.1773167155
1.1834623690
1.1883804321
1.1923331203
1.1955774879
1.1983454064
1.2008343834
1.2032044902
1.2055772887
1.2080344450
1.2106155632
1.2133167180
1.2160901839
1.2188472327
1.2214665001
1.2238065254
1.2257218238
1.2270819068
1.2277885153
1.2244546987
1.2324947692
1.2297331838
1.2299809617
1.2304572223
1.2311256507
1.2319349546
1.2328229820
1.2337226293
1.2345666572
1.2352929034
1.2358490095
1.2361938588
1.2362970672
1.2361358232
1.2356873726
1.2349184669
1.2337715245
1.2321536052
1.2299598280
1.2272375314
1.2247242208
1.2274888439
1.0365512435
1.0379319115
1.0403483686
1.0438247945
1.0488876683
1.0561008901
1.0657263883
1.0776589806
1.0914472057
1.1063715551
1.1215734514
1.1362080569
1.1495830575
1.1612484420
1.1710164619
1.1789221583
1.1851545930
1.1899844482
1.1937058641
1.1965995414
1.1989138360
1.2008578432
1.2026007503
1.2042735490
1.2059698719
1.2077453115
1.2096170980
1.2115639546
1.2135277771
1.2154201410
1.2171322541
1.2185481087
1.2195611837
1.2200900158
1.2168567209
1.2288492483
1.2260707987
1.2263466478
1.2268788842
1.2276307937
1.2285501050
1.2295727755
1.2306286867
1.2316461584
1.2325570499
1.2333016182
1.2338299329
1.2341013186
1.2340809510
1.2337310698
1.2329975440
1.2317894003
1.2299521252
1.2272608501
1.2235699842
1.2196202466
1.2224341640
1.0245033520
1.0262163753
1.0293820818
1.0331980359
1.0387251973
1.0467289723
1.0575017220
1.0708805217
1.0863052469
1.1029205438
1.1197272950
1.1357601121
1.1502473708
1.1627092415
1.1729714212
1.1811092856
1.1873612748
1.1920444178
1.1954899218
1.1980046824
1.1998544327
1.2012596306
1.2023974176
1.2034061674
1.2043884372
1.2054117311
1.2065096017
1.2076821889
1.2088976084
1.2100975076
1.2112050057
1.2121349127
1.2128074119
1.2131607547
1.2101571674
1.2253840468
1.2225894092
1.2228876629
1.2234647976
1.2242841750
1.2252931251
1.2264262747
1.2276109222
1.2287711333
1.2298327062
1.2307282776
1.2313988954
1.2317937365
1.2318668878
1.2315674496
1.2308227422
1.2295087456
1.2273985270
1.2240924583
1.2190448852
1.2124852925
1.2153032375
1.0081820361
1.0103260087
1.0159570268
1.0212709006
1.0282000554
1.0377141020
1.0501368213
1.0652691599
1.0824798077
1.1008192655
1.1191834227
1.1365129609
1.1519778089
1.1650864828
1.1756942869
1.1839297097
1.1900887387
1.1945386577
1.1976485118
1.1997503094
1.2011253599
1.2020035412
1.2025680074
1.2029625098
1.2032961783
1.2036454095
1.2040562205
1.2045454724
1.2051022362
1.2056929176
1.2062677500
1.2067685530
1.2071396005
1.2073373434
1.2046398701
1.2222196809
1.2194111680
1.2197242794
1.2203312645
1.2211956165
1.2222642132
1.2234700283
1.2247370025
1.2259834596
1.2271266908
1.2280881706
1.2287952419
1.2291815216
1.2291853161
1.2287418311
1.2277699277
1.2261462863
1.2236456770
1.2198009672
1.2135896762
1.2031052334
1.2058655376
0.9764448592
0.9793003555
0.9981831375
1.0094677446
1.0198105475
1.0316883141
1.0459919746
1.0627556438
1.0814433784
1.1011217244
1.1206480274
1.1389027438
1.1550124593
1.1684809643
1.1791967791
1.1873424403
1.1932694089
1.1973908132
1.2001079615
1.2017723670
1.2026760719
1.2030545484
1.2030940447
1.2029413824
1.2027101242
1.2024831073
1.2023156317
1.2022370608
1.2022520809
1.2023455925
1.2024881993
1.2026421534
1.2027701206
1.2028425568
1.2004683689
1.2194783273
1.2166598050
1.2169794686
1.2175995566
1.2184833754
1.2195767009
1.2208096163
1.2221004452
1.2233576899
1.2244828897
1.2253736261
1.2259210120
1.2260028452
1.2254687647
1.2241055882
1.2215712977
1.2172626981
1.2100269134
1.1974998637
1.1744393548
1.1281223238
1.0237977060
0.8793763226
0.9465641910
1.0340520979
1.0227340439
1.0217134496
1.0229661524
1.0280792144
1.0372214217
1.0501277293
1.0662571771
1.0847840415
1.1045958778
1.1243956658
1.1429212030
1.1591945200
1.1726708415
1.1832418586
1.1911232472
1.1967060922
1.2004365507
1.2027377691
1.2039726116
1.2044378238
1.2043702282
1.2039562561
1.2033437034
1.2026487576
1.2019586817
1.2013353748
1.2008169759
1.2004188330
1.2001382152
1.1999591409
1.1998571589
1.1998068477
1.1997877177
1.1977003319
1.2172812154
1.2144577078
1.2147768649
1.2153959336
1.2162780538
1.2173679966
1.2185932076
1.2198669382
1.2210889357
1.2221470821
1.2229193263
1.2232694362
1.2230383086
1.2220276630
1.2199640792
1.2164366119
1.2107848245
1.2018775738
1.1876677103
1.1642236132
1.1235313090
1.0493334007
0.8799086976
0.9478277798
0.9978827795
1.0064436236
1.0142695453
1.0210809260
1.0292678239
1.0399498256
1.0535275046
1.0699111418
1.0885649929
1.1085160296
1.1284872796
1.1471580771
1.1634823590
1.1768799412
1.1872491332
1.1948384649
1.2000762886
1.2034382703
1.2053656682
1.2062295047
1.2063288241
1.2059001467
1.2051289845
1.2041632082
1.2031205925
1.2020913482
1.2011417297
1.2003153955
1.1996339829
1.1991016956
1.1987097750
1.1984406908
1.1982751120
1.1981971351
1.1963194568
1.2157366028
1.2129136362
1.2132272378
1.2138353052
1.2147011164
1.2157690935
1.2169652902
1.2182000380
1.2193678467
1.2203484777
1.2210087945
1.2211983781
1.2207415393
1.2194234444
1.2169585585
1.2129389897
1.2067480359
1.1973968236
1.1832237408
1.1613107453
1.1263505551
1.0704761139
0.9612474484
0.9788892627
1.0013870452
1.0086289188
1.0159760320
1.0235628917
1.0325614619
1.0437149423
1.0574160132
1.0737237875
1.0922812401
1.1122257622
1.1322623811
1.1510049197
1.1673445407
1.1806617689
1.1908545187
1.1981981419
1.2031534190
1.2062217121
1.2078596604
1.2084448075
1.2082776654
1.2075941221
1.2065786594
1.2053789655
1.2041137338
1.2028748577
1.2017308778
1.2007279788
1.1998901730
1.1992238594
1.1987222245
1.1983693215
1.1981470989
1.1980405759
1.1962708965
1.2149249663
1.2121077149
1.2124122721
1.2130024592
1.2138419616
1.2148754815
1.2160289159
1.2172117948
1.2183167514
1.2192204111
1.2197855275
1.2198569429
1.2192547948
1.2177633779
1.2151039399
1.2108920244
1.2045699383
1.1952821849
1.1816637741
1.1614705551
1.1309527032
1.0857689566
1.0094956194
1.0026791465
1.0087788618
1.0131525501
1.0195128498
1.0271924733
1.0364444192
1.0476677036
1.0612150747
1.0772496040
1.0955571908
1.1153732007
1.1354065362
1.1541799274
1.1705215986
1.1837824001
1.1938532065
1.2010275529
1.2057910280
1.2086651343
1.2101185725
1.2105339717
1.2102130206
1.2093912294
1.2082524248
1.2069441828
1.2055856270
1.2042691598
1.2030636005
1.2020147764
1.2011453855
1.2004596513
1.1999479330
1.1995911248
1.1993682302
1.1992620031
1.1974901393
1.2148904740
1.2120829259
1.2123757219
1.2129426000
1.2137477191
1.2147363727
1.2158350754
1.2169540003
1.2179862812
1.2188089013
1.2192851399
1.2192608589
1.2185586309
1.2169685780
1.2142241908
1.2099656700
1.2036844271
1.1946220808
1.1816104367
1.1628203332
1.1353999528
1.0966357365
1.0383965568
1.0202854945
1.0170176838
1.0184315969
1.0235544117
1.0308928403
1.0400375680
1.0511007917
1.0643778833
1.0800891612
1.0981151330
1.1177614440
1.1377426818
1.1565249903
1.1728644498
1.1860982370
1.1961090115
1.2032001116
1.2078727703
1.2106616047
1.2120432853
1.2124039523
1.2120464015
1.2112063766
1.2100677864
1.2087784708
1.2074577248
1.2061974434
1.2050648082
1.2041024379
1.2033280127
1.2027391547
1.2023185344
1.2020390372
1.2018723882
1.2017957967
1.1999180532
1.2156391432
1.2128434190
1.2131219500
1.2136604333
1.2144233866
1.2153567159
1.2163878971
1.2174285692
1.2183738707
1.2191034166
1.2194839382
1.2193657014
1.2185770583
1.2169162429
1.2141287013
1.2098735031
1.2036739306
1.1948281735
1.1822743572
1.1643953627
1.1387814223
1.1033924805
1.0538011258
1.0314924292
1.0240365583
1.0235414864
1.0275929623
1.0343433228
1.0430887176
1.0537976528
1.0667265611
1.0821122158
1.0998715133
1.1193379688
1.1392256336
1.1579725667
1.1742946499
1.1875189988
1.1975231013
1.2046122686
1.2092929898
1.2121045796