<VTKFile type="UnstructuredGrid" version="0.1">
	<UnstructuredGrid>
		<Piece NumberOfPoints="13548" NumberOfCells="3387">
			<CellData>
				<DataArray type="Int32" Name="ghost" NumberOfComponents="1" Format="ascii">
1
1
1
1
1
1
1
1
1
1
1
1
1
1
1
1
1
1
1
1
1
1
1
1
1
1
1
1
1
1
1
1
1
1
1
1
1
1
1
1
1
1
1
1
1
1
1
1
1
1
1
1
1
1
1
1
1
1
0
0
0
0
0
0
0
0
0
0
0
0
0
0
0
0
0
0
0
0
1
1
0
0
0
0
0
0
0
0
0
0
0
0
0
0
0
0
0
0
0
0
0
0
0
0
0
0
0
0
0
0
0
0
0
1
1
0
0
0
0
0
0
0
0
0
0
0
0
0
0
0
0
0
0
0
0
1
1
0
0
0
0
0
0
0
0
0
0
0
0
0
0
0
0
0
0
0
0
0
0
0
0
0
0
0
0
0
0
0
0
0
1
1
0
0
0
0
0
0
0
0
0
0
0
0
0
0
0
0
0
0
0
0
1
1
0
0
0
0
0
0
0
0
0
0
0
0
0
0
0
0
0
0
0
0
0
0
0
0
0
0
0
0
0
0
0
0
0
1
1
0
0
0
0
0
0
0
0
0
0
0
0
0
0
0
0
0
0
0
0
1
1
0
0
0
0
0
0
0
0
0
0
0
0
0
0
0
0
0
0
0
0
0
0
0
0
0
0
0
0
0
0
0
0
0
1
1
0
0
0
0
0
0
0
0
0
0
0
0
0
0
0
0
0
0
0
0
1
1
0
0
0
0
0
0
0
0
0
0
0
0
0
0
0
0
0
0
0
0
0
0
0
0
0
0
0
0
0
0
0
0
0
1
1
0
0
0
0
0
0
0
0
0
0
0
0
0
0
0
0
0
0
0
0
1
1
0
0
0
0
0
0
0
0
0
0
0
0
0
0
0
0
0
0
0
0
0
0
0
0
0
0
0
0
0
0
0
0
0
1
1
0
0
0
0
0
0
0
0
0
0
0
0
0
0
0
0
0
0
0
0
1
1
0
0
0
0
0
0
0
0
0
0
0
0
0
0
0
0
0
0
0
0
0
0
0
0
0
0
0
0
0
0
0
0
0
1
1
0
0
0
0
0
0
0
0
0
0
0
0
0
0
0
0
0
0
0
0
1
1
0
0
0
0
0
0
0
0
0
0
0
0
0
0
0
0
0
0
0
0
0
0
0
0
0
0
0
0
0
0
0
0
0
1
1
0
0
0
0
0
0
0
0
0
0
0
0
0
0
0
0
0
0
0
0
1
1
0
0
0
0
0
0
0
0
0
0
0
0
0
0
0
0
0
0
0
0
0
0
0
0
0
0
0
0
0
0
0
0
0
1
1
0
0
0
0
0
0
0
0
0
0
0
0
0
0
0
0
0
0
0
0
1
1
0
0
0
0
0
0
0
0
0
0
0
0
0
0
0
0
0
0
0
0
0
0
0
0
0
0
0
0
0
0
0
0
0
1
1
0
0
0
0
0
0
0
0
0
0
0
0
0
0
0
0
0
0
0
0
1
1
0
0
0
0
0
0
0
0
0
0
0
0
0
0
0
0
0
0
0
0
0
0
0
0
0
0
0
0
0
0
0
0
0
1
1
0
0
0
0
0
0
0
0
0
0
0
0
0
0
0
0
0
0
0
0
1
1
0
0
0
0
0
0
0
0
0
0
0
0
0
0
0
0
0
0
0
0
0
0
0
0
0
0
0
0
0
0
0
0
0
1
1
0
0
0
0
0
0
0
0
0
0
0
0
0
0
0
0
0
0
0
0
1
1
0
0
0
0
0
0
0
0
0
0
0
0
0
0
0
0
0
0
0
0
0
0
0
0
0
0
0
0
0
0
0
0
0
1
1
0
0
0
0
0
0
0
0
0
0
0
0
0
0
0
0
0
0
0
0
1
1
0
0
0
0
0
0
0
0
0
0
0
0
0
0
0
0
0
0
0
0
0
0
0
0
0
0
0
0
0
0
0
0
0
1
1
0
0
0
0
0
0
0
0
0
0
0
0
0
0
0
0
0
0
0
0
1
1
0
0
0
0
0
0
0
0
0
0
0
0
0
0
0
0
0
0
0
0
0
0
0
0
0
0
0
0
0
0
0
0
0
1
1
0
0
0
0
0
0
0
0
0
0
0
0
0
0
0
0
0
0
0
0
1
1
0
0
0
0
0
0
0
0
0
0
0
0
0
0
0
0
0
0
0
0
0
0
0
0
0
0
0
0
0
0
0
0
0
1
1
0
0
0
0
0
0
0
0
0
0
0
0
0
0
0
0
0
0
0
0
1
1
0
0
0
0
0
0
0
0
0
0
0
0
0
0
0
0
0
0
0
0
0
0
0
0
0
0
0
0
0
0
0
0
0
1
1
0
0
0
0
0
0
0
0
0
0
0
0
0
0
0
0
0
0
0
0
1
1
0
0
0
0
0
0
0
0
0
0
0
0
0
0
0
0
0
0
0
0
0
0
0
0
0
0
0
0
0
0
0
0
0
1
1
0
0
0
0
0
0
0
0
0
0
0
0
0
0
0
0
0
0
0
0
1
1
0
0
0
0
0
0
0
0
0
0
0
0
0
0
0
0
0
0
0
0
0
0
0
0
0
0
0
0
0
0
0
0
0
1
1
0
0
0
0
0
0
0
0
0
0
0
0
0
0
0
0
0
0
0
0
1
1
0
0
0
0
0
0
0
0
0
0
0
0
0
0
0
0
0
0
0
0
0
0
0
0
0
0
0
0
0
0
0
0
0
1
1
0
0
0
0
0
0
0
0
0
0
0
0
0
0
0
0
0
0
0
0
1
1
0
0
0
0
0
0
0
0
0
0
0
0
0
0
0
0
0
0
0
0
0
0
0
0
0
0
0
0
0
0
0
0
0
1
1
0
0
0
0
0
0
0
0
0
0
0
0
0
0
0
0
0
0
0
0
1
1
0
0
0
0
0
0
0
0
0
0
0
0
0
0
0
0
0
0
0
0
0
0
0
0
0
0
0
0
0
0
0
0
0
1
1
0
0
0
0
0
0
0
0
0
0
0
0
0
0
0
0
0
0
0
0
1
1
0
0
0
0
0
0
0
0
0
0
0
0
0
0
0
0
0
0
0
0
0
0
0
0
0
0
0
0
0
0
0
0
0
1
1
0
0
0
0
0
0
0
0
0
0
0
0
0
0
0
0
0
0
0
0
1
1
0
0
0
0
0
0
0
0
0
0
0
0
0
0
0
0
0
0
0
0
0
0
0
0
0
0
0
0
0
0
0
0
0
1
1
0
0
0
0
0
0
0
0
0
0
0
0
0
0
0
0
0
0
0
0
0
1
1
0
0
0
0
0
0
0
0
0
0
0
0
0
0
0
0
0
0
0
0
0
0
0
0
0
0
0
0
0
0
0
0
0
0
1
1
0
0
0
0
0
0
0
0
0
0
0
0
0
0
0
0
0
0
0
0
0
0
0
0
0
0
0
0
0
0
0
0
0
0
0
0
0
0
0
0
0
0
0
0
0
0
0
0
0
0
0
0
0
0
0
0
0
1
1
0
0
0
0
0
0
0
0
0
0
0
0
0
0
0
0
0
0
0
0
0
0
0
0
0
0
0
0
0
0
0
0
0
0
0
0
0
0
0
0
0
0
0
0
0
0
0
0
0
0
0
0
0
0
0
0
0
1
1
0
0
0
0
0
0
0
0
0
0
0
0
0
0
0
0
0
0
0
0
0
0
0
0
0
0
0
0
0
0
0
0
0
0
0
0
0
0
0
0
0
0
0
0
0
0
0
0
0
0
0
0
0
0
0
0
0
1
1
0
0
0
0
0
0
0
0
0
0
0
0
0
0
0
0
0
0
0
0
0
0
0
0
0
0
0
0
0
0
0
0
0
0
0
0
0
0
0
0
0
0
0
0
0
0
0
0
0
0
0
0
0
0
0
0
0
1
1
0
0
0
0
0
0
0
0
0
0
0
0
0
0
0
0
0
0
0
0
0
0
0
0
0
0
0
0
0
0
0
0
0
0
0
0
0
0
0
0
0
0
0
0
0
0
0
0
0
0
0
0
0
0
0
0
0
1
1
0
0
0
0
0
0
0
0
0
0
0
0
0
0
0
0
0
0
0
0
0
0
0
0
0
0
0
0
0
0
0
0
0
0
0
0
0
0
0
0
0
0
0
0
0
0
0
0
0
0
0
0
0
0
0
0
0
1
1
0
0
0
0
0
0
0
0
0
0
0
0
0
0
0
0
0
0
0
0
0
0
0
0
0
0
0
0
0
0
0
0
0
0
0
0
0
0
0
0
0
0
0
0
0
0
0
0
0
0
0
0
0
0
0
0
0
1
1
0
0
0
0
0
0
0
0
0
0
0
0
0
0
0
0
0
0
0
0
0
0
0
0
0
0
0
0
0
0
0
0
0
0
0
0
0
0
0
0
0
0
0
0
0
0
0
0
0
0
0
0
0
0
0
0
0
1
1
0
0
0
0
0
0
0
0
0
0
0
0
0
0
0
0
0
0
0
0
0
0
0
0
0
0
0
0
0
0
0
0
0
0
0
0
0
0
0
0
0
0
0
0
0
0
0
0
0
0
0
0
0
0
0
0
0
1
1
0
0
0
0
0
0
0
0
0
0
0
0
0
0
0
0
0
0
0
0
0
0
0
0
0
0
0
0
0
0
0
0
0
0
0
0
0
0
0
0
0
0
0
0
0
0
0
0
0
0
0
0
0
0
0
0
0
1
1
0
0
0
0
0
0
0
0
0
0
0
0
0
0
0
0
0
0
0
0
0
1
1
0
0
0
0
0
0
0
0
0
0
0
0
0
0
0
0
0
0
0
0
0
0
0
0
0
0
0
0
0
0
0
0
0
0
1
1
0
0
0
0
0
0
0
0
0
0
0
0
0
0
0
0
0
0
0
0
1
1
0
0
0
0
0
0
0
0
0
0
0
0
0
0
0
0
0
0
0
0
0
0
0
0
0
0
0
0
0
0
0
0
0
1
1
0
0
0
0
0
0
0
0
0
0
0
0
0
0
0
0
0
0
0
0
1
1
0
0
0
0
0
0
0
0
0
0
0
0
0
0
0
0
0
0
0
0
0
0
0
0
0
0
0
0
0
0
0
0
0
1
1
0
0
0
0
0
0
0
0
0
0
0
0
0
0
0
0
0
0
0
0
1
1
0
0
0
0
0
0
0
0
0
0
0
0
0
0
0
0
0
0
0
0
0
0
0
0
0
0
0
0
0
0
0
0
0
1
1
0
0
0
0
0
0
0
0
0
0
0
0
0
0
0
0
0
0
0
0
1
1
0
0
0
0
0
0
0
0
0
0
0
0
0
0
0
0
0
0
0
0
0
0
0
0
0
0
0
0
0
0
0
0
0
1
1
0
0
0
0
0
0
0
0
0
0
0
0
0
0
0
0
0
0
0
0
1
1
0
0
0
0
0
0
0
0
0
0
0
0
0
0
0
0
0
0
0
0
0
0
0
0
0
0
0
0
0
0
0
0
0
1
1
0
0
0
0
0
0
0
0
0
0
0
0
0
0
0
0
0
0
0
0
1
1
0
0
0
0
0
0
0
0
0
0
0
0
0
0
0
0
0
0
0
0
0
0
0
0
0
0
0
0
0
0
0
0
0
1
1
0
0
0
0
0
0
0
0
0
0
0
0
0
0
0
0
0
0
0
0
1
1
0
0
0
0
0
0
0
0
0
0
0
0
0
0
0
0
0
0
0
0
0
0
0
0
0
0
0
0
0
0
0
0
0
1
1
0
0
0
0
0
0
0
0
0
0
0
0
0
0
0
0
0
0
0
0
1
1
0
0
0
0
0
0
0
0
0
0
0
0
0
0
0
0
0
0
0
0
0
0
0
0
0
0
0
0
0
0
0
0
0
1
1
0
0
0
0
0
0
0
0
0
0
0
0
0
0
0
0
0
0
0
0
1
1
0
0
0
0
0
0
0
0
0
0
0
0
0
0
0
0
0
0
0
0
0
0
0
0
0
0
0
0
0
0
0
0
0
1
1
0
0
0
0
0
0
0
0
0
0
0
0
0
0
0
0
0
0
0
0
1
1
0
0
0
0
0
0
0
0
0
0
0
0
0
0
0
0
0
0
0
0
0
0
0
0
0
0
0
0
0
0
0
0
0
1
1
0
0
0
0
0
0
0
0
0
0
0
0
0
0
0
0
0
0
0
0
1
1
0
0
0
0
0
0
0
0
0
0
0
0
0
0
0
0
0
0
0
0
0
0
0
0
0
0
0
0
0
0
0
0
0
1
1
0
0
0
0
0
0
0
0
0
0
0
0
0
0
0
0
0
0
0
0
1
1
0
0
0
0
0
0
0
0
0
0
0
0
0
0
0
0
0
0
0
0
0
0
0
0
0
0
0
0
0
0
0
0
0
1
1
0
0
0
0
0
0
0
0
0
0
0
0
0
0
0
0
0
0
0
0
1
1
0
0
0
0
0
0
0
0
0
0
0
0
0
0
0
0
0
0
0
0
0
0
0
0
0
0
0
0
0
0
0
0
0
1
1
0
0
0
0
0
0
0
0
0
0
0
0
0
0
0
0
0
0
0
0
1
1
0
0
0
0
0
0
0
0
0
0
0
0
0
0
0
0
0
0
0
0
0
0
0
0
0
0
0
0
0
0
0
0
0
1
1
0
0
0
0
0
0
0
0
0
0
0
0
0
0
0
0
0
0
0
0
1
1
0
0
0
0
0
0
0
0
0
0
0
0
0
0
0
0
0
0
0
0
0
0
0
0
0
0
0
0
0
0
0
0
0
1
1
0
0
0
0
0
0
0
0
0
0
0
0
0
0
0
0
0
0
0
0
1
1
0
0
0
0
0
0
0
0
0
0
0
0
0
0
0
0
0
0
0
0
0
0
0
0
0
0
0
0
0
0
0
0
0
1
1
0
0
0
0
0
0
0
0
0
0
0
0
0
0
0
0
0
0
0
0
1
1
0
0
0
0
0
0
0
0
0
0
0
0
0
0
0
0
0
0
0
0
0
0
0
0
0
0
0
0
0
0
0
0
0
1
1
0
0
0
0
0
0
0
0
0
0
0
0
0
0
0
0
0
0
0
0
1
1
0
0
0
0
0
0
0
0
0
0
0
0
0
0
0
0
0
0
0
0
0
0
0
0
0
0
0
0
0
0
0
0
0
1
1
0
0
0
0
0
0
0
0
0
0
0
0
0
0
0
0
0
0
0
0
1
1
0
0
0
0
0
0
0
0
0
0
0
0
0
0
0
0
0
0
0
0
0
0
0
0
0
0
0
0
0
0
0
0
0
1
1
0
0
0
0
0
0
0
0
0
0
0
0
0
0
0
0
0
0
0
0
1
1
0
0
0
0
0
0
0
0
0
0
0
0
0
0
0
0
0
0
0
0
0
0
0
0
0
0
0
0
0
0
0
0
0
1
1
0
0
0
0
0
0
0
0
0
0
0
0
0
0
0
0
0
0
0
0
1
1
0
0
0
0
0
0
0
0
0
0
0
0
0
0
0
0
0
0
0
0
0
0
0
0
0
0
0
0
0
0
0
0
0
1
1
1
1
1
1
1
1
1
1
1
1
1
1
1
1
1
1
1
1
1
1
1
1
1
1
1
1
1
1
1
1
1
1
1
1
1
1
1
1
1
1
1
1
1
1
1
1
1
1
1
1
1
1
1
1
1
1
				</DataArray>
				<DataArray type="Float64" Name="h" NumberOfComponents="1" Format="ascii">
1.3387493717
1.3343741191
1.3351465808
1.3366695944
1.3389000459
1.3417745562
1.3452107440
1.3491094113
1.3533568953
1.3578278164
1.3623894075
1.3669065506
1.3712476717
1.3752921106
1.3789373755
1.3821051861
1.3847453336
1.3868358268
1.3883782583
1.3893888029
1.3898874394
1.3898874394
1.1366586286
1.1386338768
1.1385085079
1.1382448122
1.1378210058
1.1372098566
1.1363811229
1.1353023831
1.1339370144
1.1322423067
1.1301676418
1.1276515155
1.1246198988
1.1209855633
1.1166486148
1.1115020009
1.1054425693
1.0983898334
1.0903147415
1.0812728603
1.0714349129
1.0611018460
1.0506868777
1.0406618724
1.0314780588
1.0234840391
1.0168732760
1.0116748228
1.0077819216
1.0050032518
1.0031158828
1.0019072164
1.0012028533
1.0008815320
1.0008815320
1.3343741191
1.3303079750
1.3310791788
1.3326014263
1.3348349977
1.3377214526
1.3411846323
1.3451324196
1.3494585625
1.3540446542
1.3587635262
1.3634832576
1.3680719511
1.3724041517
1.3763674731
1.3798685324
1.3828375560
1.3852300860
1.3870246572
1.3882166498
1.3888102708
1.3898874394
1.1386338768
1.1403777885
1.1402729045
1.1400502300
1.1396881962
1.1391601228
1.1384368302
1.1374876217
1.1362783469
1.1347695315
1.1329145387
1.1306564162
1.1279258168
1.1246395158
1.1206994338
1.1159957170
1.1104145062
1.1038527667
1.0962437117
1.0875895481
1.0779969855
1.0677045642
1.0570826169
1.0465967574
1.0367363731
1.0279252264
1.0204489141
1.0144223255
1.0098012807
1.0064280472
1.0040880821
1.0025606356
1.0016561547
1.0012390034
1.0008815320
1.3351784269
1.3311829253
1.3319361231
1.3334231698
1.3356059087
1.3384281207
1.3418164120
1.3456818491
1.3499216791
1.3544212173
1.3590571271
1.3637012730
1.3682252549
1.3725064645
1.3764342627
1.3799154575
1.3828786038
1.3852757345
1.3870805309
1.3882831362
1.3888833300
1.3900479222
1.1369157632
1.1387374603
1.1386312558
1.1384049096
1.1380353791
1.1374947049
1.1367529830
1.1357794716
1.1345407247
1.1329988746
1.1311101078
1.1288220298
1.1260722867
1.1227878923
1.1188849836
1.1142720997
1.1088569292
1.1025579623
1.0953237215
1.0871565973
1.0781389748
1.0684556140
1.0583992528
1.0483526554
1.0387432309
1.0299747431
1.0223590365
1.0160695852
1.0111303531
1.0074419675
1.0048292164
1.0030918466
1.0020474899
1.0015609691
1.0011292575
1.3367710525
1.3329122540
1.3336287967
1.3350442884
1.3371239359
1.3398162561
1.3430536782
1.3467538800
1.3508212614
1.3551486264
1.3596202235
1.3641152886
1.3685121121
1.3726934085
1.3765516577
1.3799937599
1.3829448156
1.3853499744
1.3871735916
1.3883958745
1.3890082758
1.3903413678
1.1335661454
1.1355221838
1.1354151370
1.1351850204
1.1348058686
1.1342472905
1.1334781662
1.1324679813
1.1311850630
1.1295951086
1.1276601862
1.1253369479
1.1225763528
1.1193241755
1.1155216733
1.1111087444
1.1060285018
1.1002334113
1.0936946324
1.0864123501
1.0784280322
1.0698392033
1.0608121715
1.0515899606
1.0424864193
1.0338549542
1.0260355004
1.0192935358
1.0137736140
1.0094890141
1.0063469699
1.0041948376
1.0028706850
1.0022443964
1.0016591845
1.3391183128
1.3354535037
1.3361138405
1.3374198291
1.3393422157
1.3418372317
1.3448466517
1.3482985753
1.3521084443
1.3561803624
1.3604097488
1.3646864159
1.3688979751
1.3729342646
1.3766915913
1.3800763546
1.3830082623
1.3854225007
1.3872703612
1.3885184207
1.3891468796
1.3907177295
1.1287691476
1.1308761596
1.1307722241
1.1305451066
1.1301644593
1.1295964639
1.1288086080
1.1277712931
1.1264561168
1.1248346075
1.1228777586
1.1205551006
1.1178354423
1.1146883097
1.1110850118
1.1070008725
1.1024167078
1.0973187472
1.0916980771
1.0855484866
1.0788662271
1.0716571277
1.0639531486
1.0558401646
1.0474878220
1.0391605609
1.0311949799
1.0239406738
1.0176840398
1.0125925585
1.0087018692
1.0059445130
1.0042033894
1.0033662395
1.0025391610
1.3421627141
1.3387371814
1.3393212892
1.3404790651
1.3421893030
1.3444193409
1.3471242387
1.3502466655
1.3537171802
1.3574549714
1.3613699419
1.3653651611
1.3693394523
1.3731907265
1.3768190192
1.3801290870
1.3830332139
1.3854540272
1.3873270440
1.3886028593
1.3892487721
1.3911108988
1.1228201658
1.1250428033
1.1249506894
1.1247426462
1.1243823208
1.1238314799
1.1230561879
1.1220286172
1.1207251738
1.1191252113
1.1172108554
1.1149666001
1.1123805611
1.1094461508
1.1061627178
1.1025361318
1.0985770706
1.0942958890
1.0896951228
1.0847594227
1.0794473517
1.0736921742
1.0674169250
1.0605692330
1.0531715116
1.0453667089
1.0374354220
1.0297628209
1.0227567721
1.0167544454
1.0119601670
1.0084379070
1.0061533751
1.0050365132
1.0038678621
1.3458176061
1.3426627414
1.3431513564
1.3441237623
1.3455693776
1.3474701377
1.3497984340
1.3525157290
1.3555717555
1.3589043981
1.3624409706
1.3660998671
1.3697922172
1.3734240829
1.3768983720
1.3801166237
1.3829817536
1.3854019300
1.3872954200
1.3885960072
1.3892578551
1.3914469830
1.1161200680
1.1183711993
1.1183048178
1.1181419054
1.1178380277
1.1173492285
1.1166398507
1.1156843206
1.1144647350
1.1129691406
1.1111912088
1.1091298187
1.1067901607
1.1041849552
1.1013340933
1.0982634874
1.0950010782
1.0915689886
1.0879730304
1.0841897171
1.0801545980
1.0757583148
1.0708560675
1.0652979179
1.0589817815
1.0519175195
1.0442801357
1.0364198804
1.0288064985
1.0219247240
1.0161674420
1.0117756082
1.0088467751
1.0073902173
1.0057696080
1.3499648829
1.3470979522
1.3474744749
1.3482294581
1.3493651382
1.3508810886
1.3527706435
1.3550178976
1.3575954594
1.3604631278
1.3635680619
1.3668454226
1.3702190142
1.3736024175
1.3769000274
1.3800084314
1.3828195797
1.3852261725
1.3871290849
1.3884459968
1.3891190997
1.3916529446
1.1091334765
1.1112899074
1.1112676529
1.1111841853
1.1109840886
1.1106156526
1.1100404680
1.1092347747
1.1081859852
1.1068900136
1.1053503154
1.1035769446
1.1015870207
1.0994051573
1.0970620885
1.0945923642
1.0920295038
1.0893977848
1.0867019033
1.0839145034
1.0809640032
1.0777273848
1.0740325636
1.0696779369
1.0644756149
1.0583163403
1.0512439365
1.0435090654
1.0355629542
1.0279778439
1.0213205817
1.0160383219
1.0124111128
1.0105744498
1.0083853266
1.3544545589
1.3518802951
1.3521329901
1.3526477040
1.3534407697
1.3545313302
1.3559361710
1.3576648944
1.3597158953
1.3620734492
1.3647064039
1.3675675594
1.3705932333
1.3737034855
1.3768026537
1.3797808456
1.3825180807
1.3848916116
1.3867860953
1.3881052337
1.3887816854
1.3916612250
1.1023180139
1.1042484831
1.1042915402
1.1043263575
1.1042824645
1.1040973542
1.1037278429
1.1031504056
1.1023560406
1.1013461618
1.1001306273
1.0987259647
1.0971550376
1.0954467728
1.0936341790
1.0917517248
1.0898308963
1.0878931688
1.0859415092
1.0839500203
1.0818527254
1.0795344210
1.0768266997
1.0735156825
1.0693699948
1.0641940516
1.0579057546
1.0506196655
1.0426945662
1.0347077413
1.0273471002
1.0212629337
1.0169543571
1.0147305632
1.0118590599
1.3591104993
1.3568240809
1.3569480423
1.3572125351
1.3576479031
1.3582930965
1.3591891246
1.3603724182
1.3618688123
1.3636886723
1.3658236936
1.3682447224
1.3709001719
1.3737155257
1.3765937935
1.3794176618
1.3820551261
1.3843690948
1.3862303756
1.3875320341
1.3882007492
1.3914124019
1.0960432001
1.0976387835
1.0977692058
1.0979614495
1.0981245122
1.0981810166
1.0980801108
1.0977960551
1.0973208365
1.0966582611
1.0958207801
1.0948268002
1.0936996441
1.0924668825
1.0911582390
1.0898033167
1.0884282712
1.0870505783
1.0856728561
1.0842749899
1.0828044502
1.0811663962
1.0792152491
1.0767526633
1.0735403399
1.0693362181
1.0639615489
1.0573936939
1.0498541720
1.0418460291
1.0340986562
1.0274226692
1.0225415338
1.0199711462
1.0163191395
1.3637427674
1.3617334971
1.3617318293
1.3617513122
1.3618346471
1.3620388128
1.3624276536
1.3630637317
1.3640002999
1.3652741892
1.3669003218
1.3688676437
1.3711362771
1.3736364534
1.3762692566
1.3789099059
1.3814152933
1.3836361148
1.3854326899
1.3866917677
1.3873385838
1.3908567716
1.0905292747
1.0917245278
1.0919640660
1.0923503717
1.0927649405
1.0931106807
1.0933257499
1.0933794487
1.0932620415
1.0929768368
1.0925357733
1.0919558606
1.0912576051
1.0904642342
1.0895998106
1.0886876290
1.0877481802
1.0867956853
1.0858340583
1.0848513131
1.0838115883
1.0826454946
1.0812393390
1.0794265142
1.0769882419
1.0736728367
1.0692452968
1.0635730827
1.0567330767
1.0491009922
1.0413643421
1.0344182703
1.0291736673
1.0263546437
1.0218554659
1.3681626518
1.3664173728
1.3663012102
1.3660961965
1.3658543015
1.3656467990
1.3655567443
1.3656699028
1.3660649697
1.3668041455
1.3679250753
1.3694345756
1.3713043443
1.3734693590
1.3758291333
1.3782524388
1.3805870084
1.3826743354
1.3843683564
1.3855545868
1.3861623067
1.3899519845
1.0858309668
1.0866095004
1.0869798595
1.0875941819
1.0882979625
1.0889691907
1.0895318062
1.0899476577
1.0902030456
1.0902987197
1.0902442806
1.0900538029
1.0897438354
1.0893326489
1.0888386512
1.0882794670
1.0876710401
1.0870256077
1.0863493987
1.0856389701
1.0848749596
1.0840134377
1.0829745846
1.0816305877
1.0797983087
1.0772448996
1.0737191235
1.0690205773
1.0631055228
1.0562056899
1.0489024156
1.0420854279
1.0367756287
1.0338634673
1.0284971011
1.3721997793
1.3707050648
1.3704923838
1.3700965826
1.3695748094
1.3690073934
1.3684910604
1.3681297453
1.3680236107
1.3682575336
1.3688903973
1.3699463654
1.3714089104
1.3732185510
1.3752746265
1.3774415448
1.3795607263
1.3814681217
1.3830158675
1.3840939308
1.3846421972
1.3886610559
1.0818609684
1.0822470488
1.0827716087
1.0836475417
1.0846742727
1.0856997617
1.0866310083
1.0874204356
1.0880487733
1.0885130645
1.0888199845
1.0889806421
1.0890081338
1.0889167799
1.0887207404
1.0884336137
1.0880683838
1.0876364387
1.0871465895
1.0866029981
1.0860006235
1.0853181088
1.0845072653
1.0834799851
1.0820965522
1.0801618890
1.0774414414
1.0737110177
1.0688481375
1.0629563962
1.0564781700
1.0502153704
1.0451955409
1.0423901321
1.0361939392
1.3757184252
1.3744611829
1.3741746459
1.3736310020
1.3728881039
1.3720293159
1.3711582467
1.3703903409
1.3698415057
1.3696150582
1.3697885918
1.3704027006
1.3714530627
1.3728872268
1.3746066668
1.3764743943
1.3783290234
1.3800049803
1.3813573789
1.3822868101
1.3827517084
1.3869520082
1.0784343581
1.0784770278
1.0791836504
1.0803582134
1.0817424469
1.0831497857
1.0844683084
1.0856394694
1.0866371994
1.0874542526
1.0880946033
1.0885673399
1.0888836218
1.0890557251
1.0890956491
1.0890149921
1.0888254263
1.0885383964
1.0881651028
1.0877157323
1.0871965332
1.0866045686
1.0859189447
1.0850885888
1.0840192034
1.0825641928
1.0805293115
1.0777046197
1.0739351013
1.0692320906
1.0638968686
1.0585835561
1.0542180955
1.0517379004
1.0448089724
1.3786282991
1.3775949141
1.3772591837
1.3766148463
1.3757162320
1.3746437645
1.3735007739
1.3724067026
1.3714862753
1.3708557424
1.3706078565
1.3707981714
1.3714349694
1.3724746990
1.3738238604
1.3753475856
1.3768855102
1.3782745683
1.3793775113
1.3801121209
1.3804652552
1.3847953677
1.0753141771
1.0750707990
1.0759955759
1.0775136547
1.0792960900
1.0811185826
1.0828491039
1.0844166176
1.0857868368
1.0869476401
1.0879007991
1.0886547952
1.0892208822
1.0896116463
1.0898393217
1.0899156854
1.0898527720
1.0896629456
1.0893595550
1.0889572163
1.0884704206
1.0879103254
1.0872783273
1.0865559966
1.0856929129
1.0845955867
1.0831250157
1.0811141445
1.0784165087
1.0749932436
1.0710229709
1.0669783791
1.0635898585
1.0616392239
1.0541263035
1.3808891693
1.3800638738
1.3797029255
1.3790041252
1.3780148073
1.3768072632
1.3754779058
1.3741427189
1.3729278728
1.3719562467
1.3713313191
1.3711214214
1.3713474454
1.3719765312
1.3729232038
1.3740583320
1.3752263073
1.3762702118
1.3770645778
1.3775511806
1.3777579190
1.3821636701
1.0722405871
1.0717639669
1.0729561662
1.0748752668
1.0771080864
1.0793916501
1.0815732806
1.0835672042
1.0853284929
1.0868388978
1.0880982907
1.0891161062
1.0899060252
1.0904836002
1.0908639353
1.0910613425
1.0910900511
1.0909644157
1.0907000031
1.0903147034
1.0898287373
1.0892635308
1.0886379761
1.0879613841
1.0872237914
1.0863853758
1.0853703550
1.0840735453
1.0823882857
1.0802632392
1.0777807391
1.0752199221
1.0730476853
1.0717863131
1.0638725700
1.3825090157
1.3818725059
1.3815073707
1.3807950388
1.3797734401
1.3785028550
1.3770674054
1.3755730829
1.3741405122
1.3728927101
1.3719388422
1.3713570510
1.3711801035
1.3713870446
1.3719029862
1.3726077347
1.3733535974
1.3739925479
1.3744139354
1.3745901570
1.3746065572
1.3790325103
1.0689375449
1.0682678917
1.0697971069
1.0721928392
1.0749456321
1.0777565800
1.0804519142
1.0829269184
1.0851215019
1.0870086843
1.0885862415
1.0898662375
1.0908675248
1.0916117459
1.0921199267
1.0924116276
1.0925054545
1.0924192418
1.0921713933
1.0917826213
1.0912772023
1.0906838777
1.0900349535
1.0893628041
1.0886937306
1.0880396397
1.0873908246
1.0867145593
1.0859641887
1.0851034529
1.0841425552
1.0831682636
1.0823456157
1.0818684564
1.0737490147
1.3835358910
1.3830648724
1.3827120834
1.3820187701
1.3810122145
1.3797383779
1.3782654492
1.3766844689
1.3751046360
1.3736430678
1.3724093692
1.3714878205
1.3709213676
1.3707011696
1.3707645330
1.3710024559
1.3712772157
1.3714508983
1.3714287016
1.3712191670
1.3709864624
1.3753772696
1.0650969585
1.0642583126
1.0662265061
1.0692008395
1.0725696560
1.0760061583
1.0793136294
1.0823602397
1.0850627635
1.0873809946
1.0893099936
1.0908666617
1.0920787095
1.0929779566
1.0935952205
1.0939586772
1.0940940404
1.0940246674
1.0937730637
1.0933630996
1.0928223685
1.0921849931
1.0914935654
1.0907994835
1.0901610362
1.0896385037
1.0892875059
1.0891516140
1.0892541191
1.0895893878
1.0901118353
1.0907232104
1.0912756652
1.0916074841
1.0834670584
1.3840460586
1.3837140361
1.3833849017
1.3827332612
1.3817755991
1.3805428153
1.3790854021
1.3774764075
1.3758093405
1.3741903943
1.3727246199
1.3714982993
1.3705618773
1.3699175738
1.3695151275
1.3692575378
1.3690174381
1.3686659450
1.3681217574
1.3674319831
1.3668667748
1.3711686552
1.0603423698
1.0593427355
1.0619060836
1.0656017257
1.0697253679
1.0739364894
1.0780086154
1.0817676723
1.0850946466
1.0879299007
1.0902656418
1.0921274614
1.0935575797
1.0946038390
1.0953120917
1.0957234854
1.0958742824
1.0957959929
1.0955170856
1.0950656211
1.0944726182
1.0937766198
1.0930283679
1.0922950567
1.0916629842
1.0912367228
1.0911339810
1.0914732776
1.0923492126
1.0937912029
1.0957051014
1.0978171155
1.0996777433
1.1007811588
1.0927765548
1.3841305966
1.3839097369
1.3836103896
1.3830131634
1.3821244906
1.3809608210
1.3795549260
1.3779607594
1.3762537191
1.3745254611
1.3728722083
1.3713780334
1.3700974140
1.3690412768
1.3681704074
1.3673987565
1.3666074617
1.3656723595
1.3645178732
1.3632249685
1.3622015605
1.3663639822
1.0541737026
1.0530085168
1.0564191149
1.0610470976
1.0661384964
1.0713563147
1.0764254015
1.0811040458
1.0852206224
1.0886904763
1.0915058782
1.0937086992
1.0953647306
1.0965463277
1.0973214690
1.0977498140
1.0978823195
1.0977617332
1.0974247315
1.0969050406
1.0962378072
1.0954657957
1.0946466254
1.0938608670
1.0932193152
1.0928664447
1.0929771166
1.0937395937
1.0953145480
1.0977620941
1.1009392481
1.1044070837
1.1074419588
1.1092341713
1.1014840621
1.3838830679
1.3837464764
1.3834784921
1.3829396019
1.3821275595
1.3810459827
1.3797112961
1.3781589651
1.3764456696
1.3746465398
1.3728458211
1.3711215677
1.3695284291
1.3680825745
1.3667527630
1.3654606770
1.3640913219
1.3625166693
1.3606508103
1.3585891299
1.3569062321
1.3608839367
1.0458809901
1.0445400227
1.0492323539
1.0551329040
1.0615435292
1.0681361181
1.0745449002
1.0804256766
1.0855399266
1.0897801932
1.0931500108
1.0957218776
1.0975990201
1.0988898633
1.0996933887
1.1000942067
1.1001624434
1.0999552098
1.0995195915
1.0988964745
1.0981260325
1.0972554667
1.0963486004
1.0954976205
1.0948347845
1.0945400073
1.0948392525
1.0959826246
1.0981870433
1.1015331304
1.1058242706
1.1104680739
1.1145046071
1.1168770432
1.1094592100
1.3833899149
1.3833136857
1.3830749817
1.3825911763
1.3818530543
1.3808536289
1.3795953076
1.3780969986
1.3763976631
1.3745556004
1.3726413957
1.3707242186
1.3688552272
1.3670517250
1.3652858780
1.3634815502
1.3615196445
1.3592542165
1.3565609018
1.3535015324
1.3508174446
1.3545730664
1.0343701168
1.0328483273
1.0396425493
1.0474376563
1.0557897204
1.0643366455
1.0725556662
1.0799756307
1.0863006227
1.0914249375
1.0953902673
1.0983233749
1.1003835212
1.1017287039
1.1024982254
1.1028077581
1.1027503809
1.1023999028
1.1018152846
1.1010454966
1.1001363213
1.0991395868
1.0981248887
1.0971946850
1.0965000442
1.0962519066
1.0967206341
1.0982086017
1.1009764870
1.1051123336
1.1103597035
1.1159862942
1.1208386448
1.1236747032
1.1166290741
1.3827243341
1.3826888892
1.3824745929
1.3820370337
1.3813617779
1.3804336463
1.3792438129
1.3777973903
1.3761178682
1.3742479988
1.3722447677
1.3701672043
1.3680604873
1.3659394292
1.3637745716
1.3614847010
1.3589352003
1.3559413776
1.3522951394
1.3479237158
1.3436261936
1.3471340909
1.0176348310
1.0159478269
1.0266639430
1.0376888370
1.0491244310
1.0604777594
1.0710516926
1.0803044540
1.0879584032
1.0939751090
1.0984816287
1.1016900176
1.1038348206
1.1051348963
1.1057761753
1.1059085765
1.1056493648
1.1050892735
1.1042989258
1.1033350311
1.1022486976
1.1010960974
1.0999520514
1.0989280903
1.0981916919
1.0979805275
1.0986024085
1.1004016992
1.1036694462
1.1084877174
1.1145351721
1.1209551820
1.1264438186
1.1296322395
1.1229673337
1.3819460852
1.3819365861
1.3817396934
1.3813351070
1.3807046283
1.3798269696
1.3786846286
1.3772717131
1.3755989100
1.3736956074
1.3716066513
1.3693815427
1.3670593126
1.3646515005
1.3621253901
1.3593911665
1.3562903268
1.3525774704
1.3478971873
1.3418457635
1.3348085468
1.3380618998
0.9906192883
0.9888241282
1.0088725358
1.0263939910
1.0428821628
1.0580308117
1.0713128459
1.0823946747
1.0912041499
1.0978800575
1.1026914790
1.1059607655
1.1080059452
1.1091069308
1.1094933430
1.1093454593
1.1088007818
1.1079634611
1.1069129023
1.1057113435
1.1044136834
1.1030794023
1.1017876616
1.1006578465
1.0998716108
1.0996892781
1.1004493159
1.1025279806
1.1062339343
1.1116315737
1.1183322680
1.1253722052
1.1313367877
1.1347800393
1.1284807243
1.3811070635
1.3811130385
1.3809251542
1.3805371496
1.3799278567
1.3790710108
1.3779417761
1.3765246027
1.3748183563
1.3728392405
1.3706189783
1.3681951581
1.3655971326
1.3628297332
1.3598563082
1.3565861225
1.3528632804
1.3484410437
1.3429054457
1.3354665113
1.3247006577
1.3277340434
0.9357373868
0.9339522200
0.9849541777
1.0168395445
1.0409240179
1.0601619907
1.0755736175
1.0876660089
1.0968469960
1.1035311253
1.1081450821
1.1111032573
1.1127794915
1.1134884466
1.1134822513
1.1129556913
1.1120549964
1.1108895369
1.1095417498
1.1080754764
1.1065468719
1.1050171644
1.1035687937
1.1023278500
1.1014881765
1.1013290534
1.1022133680
1.1045401389
1.1086247436
1.1145052679
1.1217267779
1.1292360864
1.1355421383
1.1391603533
1.1331952505
1.3802598519
1.3802743603
1.3800873435
1.3796997298
1.3790875361
1.3782196338
1.3770636881
1.3755935774
1.3737937796
1.3716615340
1.3692038566
1.3664244719
1.3633026540
1.3597629071
1.3556292864
1.3505575917
1.3439156753
1.3345296083
1.3200980162
1.2956961015
1.2495353893
1.1498333452
1.0142200474
1.0437810214
1.0103203696
1.0166981231
1.0343649952
1.0495037825
1.0639039896
1.0771213710
1.0886140323
1.0980731541
1.1054336093
1.1108159118
1.1144572279
1.1166513500
1.1176979934
1.1178678967
1.1173886703
1.1164417709
1.1151657307
1.1136654025
1.1120204641
1.1102929755
1.1085384689
1.1068189673
1.1052196645
1.1038726877
1.1029825697
1.1028444500
1.1038402986
1.1063843300
1.1107904060
1.1170654089
1.1246924235
1.1325463564
1.1390871471
1.1428188055
1.1371464406
1.3794632187
1.3794818724
1.3792903716
1.3788926534
1.3782623788
1.3773643484
1.3761599648
1.3746143535
1.3727002218
1.3703997163
1.3677013686
1.3645861256
1.3610047551
1.3568457193
1.3518869252
1.3457294066
1.3376947407
1.3266326482
1.3105368836
1.2857016456
1.2447374520
1.1728679943
1.0100704601
1.0400725579
1.0270985188
1.0328269450
1.0464351383
1.0603311680
1.0737210495
1.0859046814
1.0964021064
1.1049746405
1.1115801205
1.1163282445
1.1194301376
1.1211528825
1.1217758072
1.1215569620
1.1207180550
1.1194387155
1.1178571348
1.1160783684
1.1141823887
1.1122315319
1.1102821454
1.1083980849
1.1066679637
1.1052300007
1.1042984412
1.1041817801
1.1052767210
1.1080069211
1.1126794838
1.1192690085
1.1272037349
1.1353029182
1.1419979786
1.1457984749
1.1403719193
1.3787732397
1.3787932280
1.3785952910
1.3781839127
1.3775311572
1.3765990850
1.3753449479
1.3737282707
1.3717145583
1.3692773728
1.3663960248
1.3630421514
1.3591580936
1.3546267527
1.3492264219
1.3425729914
1.3340396860
1.3226177960
1.3066679037
1.2834362942
1.2480784251
1.1932422702
1.0857198888
1.0770854178
1.0594825372
1.0570135536
1.0633929316
1.0730478799
1.0837316806
1.0940559446
1.1032070644
1.1107671366
1.1166025020
1.1207587324
1.1233924919
1.1247289523
1.1250179039
1.1244989316
1.1233842424
1.1218496461
1.1200321621
1.1180368455
1.1159440824
1.1138167878
1.1117124545
1.1096970422
1.1078626647
1.1063532266
1.1053914233
1.1052966474
1.1064766455
1.1093604035
1.1142458383
1.1210775819
1.1292382328
1.1375058642
1.1442974087
1.1481364369
1.1429064157
1.3782303477
1.3782494455
1.3780453650
1.3776212523
1.3769482963
1.3759870555
1.3746925417
1.3730214013
1.3709356664
1.3684052192
1.3654063621
1.3619092251
1.3578574495
1.3531402428
1.3475502339
1.3407324009
1.3321192270
1.3208247932
1.3054742185
1.2839084354
1.2526607989
1.2073104193
1.1300297289
1.1046200152
1.0837526805
1.0760787486
1.0775113988
1.0837288681
1.0920466780
1.1007082563
1.1086592100
1.1153343591
1.1205023957
1.1241546813
1.1263999771
1.1274254987
1.1274535147
1.1267056081
1.1253839545
1.1236596631
1.1216677923
1.1195127577
1.1172748787
1.1150173182
1.1127984126
1.1106858572
1.1087747075
1.1072135448
1.1062317808
1.1061570998
1.1074050630
1.1104072748
1.1154524679
1.1224603864
1.1307785443
1.1391563266
1.1460047346
1.1498632392
1.1447799514
1.3778558794
1.3778714162
1.3776621856
1.3772275704
1.3765383861
1.3755545418
1.3742300937
1.3725205487
1.3703867058
1.3677974533
1.3647290111
1.3611529864
1.3570170280
1.3522183972
1.3465637518
1.3397220751
1.3311686034
1.3200972144
1.3052914645
1.2849257126
1.2562637056
1.2162011359
1.1549072459
1.1226145138
1.0995442342
1.0887282542
1.0871164176
1.0910519198
1.0977395853
1.1052409048
1.1123543693
1.1184146612
1.1231228169
1.1264277369
1.1284071545
1.1292217993
1.1290744892
1.1281738946
1.1267148815
1.1248650776
1.1227580623
1.1204977217
1.1181642479
1.1158209067
1.1135265761
1.1113501538
1.1093887775
1.1077943216
1.1068008427
1.1067415982
1.1080371160
1.1111200557
1.1162719011
1.1233946613
1.1318121218
1.1402556742
1.1471347274
1.1510018347
1.1460158503
1.3776552480
1.3776630182
1.3774492758
1.3770055893
1.3763027018
1.3753003810
1.3739524716
1.3722142767
1.3700464583
1.3674180163
1.3643058815
1.3606833060
1.3565010116
1.3516614967
1.3459797109
1.3391377753
1.3306327554
1.3196969727
1.3051869517
1.2854257334
1.2579966861
1.2203294139
1.1659726888
1.1313238132
1.1072058662
1.0949303369
1.0918854198
1.0947057897
1.1005809405
1.1074998912
1.1141931073
1.1199456978
1.1244251304
1.1275571402
1.1294045823
1.1301148554
1.1298809411
1.1289049549
1.1273780609
1.1254661555
1.1233021178
1.1209896048