<VTKFile type="UnstructuredGrid" version="0.1">
	<UnstructuredGrid>
		<Piece NumberOfPoints="13548" NumberOfCells="3387">
			<CellData>
				<DataArray type="Int32" Name="ghost" NumberOfComponents="1" Format="ascii">
1
1
1
1
1
1
1
1
1
1
1
1
1
1
1
1
1
1
1
1
1
1
1
1
1
1
1
1
1
1
1
1
1
1
1
1
1
1
1
1
1
1
1
1
1
1
1
1
1
1
1
1
1
1
1
1
1
1
0
0
0
0
0
0
0
0
0
0
0
0
0
0
0
0
0
0
0
0
1
1
0
0
0
0
0
0
0
0
0
0
0
0
0
0
0
0
0
0
0
0
0
0
0
0
0
0
0
0
0
0
0
0
0
1
1
0
0
0
0
0
0
0
0
0
0
0
0
0
0
0
0
0
0
0
0
1
1
0
0
0
0
0
0
0
0
0
0
0
0
0
0
0
0
0
0
0
0
0
0
0
0
0
0
0
0
0
0
0
0
0
1
1
0
0
0
0
0
0
0
0
0
0
0
0
0
0
0
0
0
0
0
0
1
1
0
0
0
0
0
0
0
0
0
0
0
0
0
0
0
0
0
0
0
0
0
0
0
0
0
0
0
0
0
0
0
0
0
1
1
0
0
0
0
0
0
0
0
0
0
0
0
0
0
0
0
0
0
0
0
1
1
0
0
0
0
0
0
0
0
0
0
0
0
0
0
0
0
0
0
0
0
0
0
0
0
0
0
0
0
0
0
0
0
0
1
1
0
0
0
0
0
0
0
0
0
0
0
0
0
0
0
0
0
0
0
0
1
1
0
0
0
0
0
0
0
0
0
0
0
0
0
0
0
0
0
0
0
0
0
0
0
0
0
0
0
0
0
0
0
0
0
1
1
0
0
0
0
0
0
0
0
0
0
0
0
0
0
0
0
0
0
0
0
1
1
0
0
0
0
0
0
0
0
0
0
0
0
0
0
0
0
0
0
0
0
0
0
0
0
0
0
0
0
0
0
0
0
0
1
1
0
0
0
0
0
0
0
0
0
0
0
0
0
0
0
0
0
0
0
0
1
1
0
0
0
0
0
0
0
0
0
0
0
0
0
0
0
0
0
0
0
0
0
0
0
0
0
0
0
0
0
0
0
0
0
1
1
0
0
0
0
0
0
0
0
0
0
0
0
0
0
0
0
0
0
0
0
1
1
0
0
0
0
0
0
0
0
0
0
0
0
0
0
0
0
0
0
0
0
0
0
0
0
0
0
0
0
0
0
0
0
0
1
1
0
0
0
0
0
0
0
0
0
0
0
0
0
0
0
0
0
0
0
0
1
1
0
0
0
0
0
0
0
0
0
0
0
0
0
0
0
0
0
0
0
0
0
0
0
0
0
0
0
0
0
0
0
0
0
1
1
0
0
0
0
0
0
0
0
0
0
0
0
0
0
0
0
0
0
0
0
1
1
0
0
0
0
0
0
0
0
0
0
0
0
0
0
0
0
0
0
0
0
0
0
0
0
0
0
0
0
0
0
0
0
0
1
1
0
0
0
0
0
0
0
0
0
0
0
0
0
0
0
0
0
0
0
0
1
1
0
0
0
0
0
0
0
0
0
0
0
0
0
0
0
0
0
0
0
0
0
0
0
0
0
0
0
0
0
0
0
0
0
1
1
0
0
0
0
0
0
0
0
0
0
0
0
0
0
0
0
0
0
0
0
1
1
0
0
0
0
0
0
0
0
0
0
0
0
0
0
0
0
0
0
0
0
0
0
0
0
0
0
0
0
0
0
0
0
0
1
1
0
0
0
0
0
0
0
0
0
0
0
0
0
0
0
0
0
0
0
0
1
1
0
0
0
0
0
0
0
0
0
0
0
0
0
0
0
0
0
0
0
0
0
0
0
0
0
0
0
0
0
0
0
0
0
1
1
0
0
0
0
0
0
0
0
0
0
0
0
0
0
0
0
0
0
0
0
1
1
0
0
0
0
0
0
0
0
0
0
0
0
0
0
0
0
0
0
0
0
0
0
0
0
0
0
0
0
0
0
0
0
0
1
1
0
0
0
0
0
0
0
0
0
0
0
0
0
0
0
0
0
0
0
0
1
1
0
0
0
0
0
0
0
0
0
0
0
0
0
0
0
0
0
0
0
0
0
0
0
0
0
0
0
0
0
0
0
0
0
1
1
0
0
0
0
0
0
0
0
0
0
0
0
0
0
0
0
0
0
0
0
1
1
0
0
0
0
0
0
0
0
0
0
0
0
0
0
0
0
0
0
0
0
0
0
0
0
0
0
0
0
0
0
0
0
0
1
1
0
0
0
0
0
0
0
0
0
0
0
0
0
0
0
0
0
0
0
0
1
1
0
0
0
0
0
0
0
0
0
0
0
0
0
0
0
0
0
0
0
0
0
0
0
0
0
0
0
0
0
0
0
0
0
1
1
0
0
0
0
0
0
0
0
0
0
0
0
0
0
0
0
0
0
0
0
1
1
0
0
0
0
0
0
0
0
0
0
0
0
0
0
0
0
0
0
0
0
0
0
0
0
0
0
0
0
0
0
0
0
0
1
1
0
0
0
0
0
0
0
0
0
0
0
0
0
0
0
0
0
0
0
0
1
1
0
0
0
0
0
0
0
0
0
0
0
0
0
0
0
0
0
0
0
0
0
0
0
0
0
0
0
0
0
0
0
0
0
1
1
0
0
0
0
0
0
0
0
0
0
0
0
0
0
0
0
0
0
0
0
1
1
0
0
0
0
0
0
0
0
0
0
0
0
0
0
0
0
0
0
0
0
0
0
0
0
0
0
0
0
0
0
0
0
0
1
1
0
0
0
0
0
0
0
0
0
0
0
0
0
0
0
0
0
0
0
0
1
1
0
0
0
0
0
0
0
0
0
0
0
0
0
0
0
0
0
0
0
0
0
0
0
0
0
0
0
0
0
0
0
0
0
1
1
0
0
0
0
0
0
0
0
0
0
0
0
0
0
0
0
0
0
0
0
1
1
0
0
0
0
0
0
0
0
0
0
0
0
0
0
0
0
0
0
0
0
0
0
0
0
0
0
0
0
0
0
0
0
0
1
1
0
0
0
0
0
0
0
0
0
0
0
0
0
0
0
0
0
0
0
0
1
1
0
0
0
0
0
0
0
0
0
0
0
0
0
0
0
0
0
0
0
0
0
0
0
0
0
0
0
0
0
0
0
0
0
1
1
0
0
0
0
0
0
0
0
0
0
0
0
0
0
0
0
0
0
0
0
1
1
0
0
0
0
0
0
0
0
0
0
0
0
0
0
0
0
0
0
0
0
0
0
0
0
0
0
0
0
0
0
0
0
0
1
1
0
0
0
0
0
0
0
0
0
0
0
0
0
0
0
0
0
0
0
0
0
1
1
0
0
0
0
0
0
0
0
0
0
0
0
0
0
0
0
0
0
0
0
0
0
0
0
0
0
0
0
0
0
0
0
0
0
1
1
0
0
0
0
0
0
0
0
0
0
0
0
0
0
0
0
0
0
0
0
0
0
0
0
0
0
0
0
0
0
0
0
0
0
0
0
0
0
0
0
0
0
0
0
0
0
0
0
0
0
0
0
0
0
0
0
0
1
1
0
0
0
0
0
0
0
0
0
0
0
0
0
0
0
0
0
0
0
0
0
0
0
0
0
0
0
0
0
0
0
0
0
0
0
0
0
0
0
0
0
0
0
0
0
0
0
0
0
0
0
0
0
0
0
0
0
1
1
0
0
0
0
0
0
0
0
0
0
0
0
0
0
0
0
0
0
0
0
0
0
0
0
0
0
0
0
0
0
0
0
0
0
0
0
0
0
0
0
0
0
0
0
0
0
0
0
0
0
0
0
0
0
0
0
0
1
1
0
0
0
0
0
0
0
0
0
0
0
0
0
0
0
0
0
0
0
0
0
0
0
0
0
0
0
0
0
0
0
0
0
0
0
0
0
0
0
0
0
0
0
0
0
0
0
0
0
0
0
0
0
0
0
0
0
1
1
0
0
0
0
0
0
0
0
0
0
0
0
0
0
0
0
0
0
0
0
0
0
0
0
0
0
0
0
0
0
0
0
0
0
0
0
0
0
0
0
0
0
0
0
0
0
0
0
0
0
0
0
0
0
0
0
0
1
1
0
0
0
0
0
0
0
0
0
0
0
0
0
0
0
0
0
0
0
0
0
0
0
0
0
0
0
0
0
0
0
0
0
0
0
0
0
0
0
0
0
0
0
0
0
0
0
0
0
0
0
0
0
0
0
0
0
1
1
0
0
0
0
0
0
0
0
0
0
0
0
0
0
0
0
0
0
0
0
0
0
0
0
0
0
0
0
0
0
0
0
0
0
0
0
0
0
0
0
0
0
0
0
0
0
0
0
0
0
0
0
0
0
0
0
0
1
1
0
0
0
0
0
0
0
0
0
0
0
0
0
0
0
0
0
0
0
0
0
0
0
0
0
0
0
0
0
0
0
0
0
0
0
0
0
0
0
0
0
0
0
0
0
0
0
0
0
0
0
0
0
0
0
0
0
1
1
0
0
0
0
0
0
0
0
0
0
0
0
0
0
0
0
0
0
0
0
0
0
0
0
0
0
0
0
0
0
0
0
0
0
0
0
0
0
0
0
0
0
0
0
0
0
0
0
0
0
0
0
0
0
0
0
0
1
1
0
0
0
0
0
0
0
0
0
0
0
0
0
0
0
0
0
0
0
0
0
0
0
0
0
0
0
0
0
0
0
0
0
0
0
0
0
0
0
0
0
0
0
0
0
0
0
0
0
0
0
0
0
0
0
0
0
1
1
0
0
0
0
0
0
0
0
0
0
0
0
0
0
0
0
0
0
0
0
0
1
1
0
0
0
0
0
0
0
0
0
0
0
0
0
0
0
0
0
0
0
0
0
0
0
0
0
0
0
0
0
0
0
0
0
0
1
1
0
0
0
0
0
0
0
0
0
0
0
0
0
0
0
0
0
0
0
0
1
1
0
0
0
0
0
0
0
0
0
0
0
0
0
0
0
0
0
0
0
0
0
0
0
0
0
0
0
0
0
0
0
0
0
1
1
0
0
0
0
0
0
0
0
0
0
0
0
0
0
0
0
0
0
0
0
1
1
0
0
0
0
0
0
0
0
0
0
0
0
0
0
0
0
0
0
0
0
0
0
0
0
0
0
0
0
0
0
0
0
0
1
1
0
0
0
0
0
0
0
0
0
0
0
0
0
0
0
0
0
0
0
0
1
1
0
0
0
0
0
0
0
0
0
0
0
0
0
0
0
0
0
0
0
0
0
0
0
0
0
0
0
0
0
0
0
0
0
1
1
0
0
0
0
0
0
0
0
0
0
0
0
0
0
0
0
0
0
0
0
1
1
0
0
0
0
0
0
0
0
0
0
0
0
0
0
0
0
0
0
0
0
0
0
0
0
0
0
0
0
0
0
0
0
0
1
1
0
0
0
0
0
0
0
0
0
0
0
0
0
0
0
0
0
0
0
0
1
1
0
0
0
0
0
0
0
0
0
0
0
0
0
0
0
0
0
0
0
0
0
0
0
0
0
0
0
0
0
0
0
0
0
1
1
0
0
0
0
0
0
0
0
0
0
0
0
0
0
0
0
0
0
0
0
1
1
0
0
0
0
0
0
0
0
0
0
0
0
0
0
0
0
0
0
0
0
0
0
0
0
0
0
0
0
0
0
0
0
0
1
1
0
0
0
0
0
0
0
0
0
0
0
0
0
0
0
0
0
0
0
0
1
1
0
0
0
0
0
0
0
0
0
0
0
0
0
0
0
0
0
0
0
0
0
0
0
0
0
0
0
0
0
0
0
0
0
1
1
0
0
0
0
0
0
0
0
0
0
0
0
0
0
0
0
0
0
0
0
1
1
0
0
0
0
0
0
0
0
0
0
0
0
0
0
0
0
0
0
0
0
0
0
0
0
0
0
0
0
0
0
0
0
0
1
1
0
0
0
0
0
0
0
0
0
0
0
0
0
0
0
0
0
0
0
0
1
1
0
0
0
0
0
0
0
0
0
0
0
0
0
0
0
0
0
0
0
0
0
0
0
0
0
0
0
0
0
0
0
0
0
1
1
0
0
0
0
0
0
0
0
0
0
0
0
0
0
0
0
0
0
0
0
1
1
0
0
0
0
0
0
0
0
0
0
0
0
0
0
0
0
0
0
0
0
0
0
0
0
0
0
0
0
0
0
0
0
0
1
1
0
0
0
0
0
0
0
0
0
0
0
0
0
0
0
0
0
0
0
0
1
1
0
0
0
0
0
0
0
0
0
0
0
0
0
0
0
0
0
0
0
0
0
0
0
0
0
0
0
0
0
0
0
0
0
1
1
0
0
0
0
0
0
0
0
0
0
0
0
0
0
0
0
0
0
0
0
1
1
0
0
0
0
0
0
0
0
0
0
0
0
0
0
0
0
0
0
0
0
0
0
0
0
0
0
0
0
0
0
0
0
0
1
1
0
0
0
0
0
0
0
0
0
0
0
0
0
0
0
0
0
0
0
0
1
1
0
0
0
0
0
0
0
0
0
0
0
0
0
0
0
0
0
0
0
0
0
0
0
0
0
0
0
0
0
0
0
0
0
1
1
0
0
0
0
0
0
0
0
0
0
0
0
0
0
0
0
0
0
0
0
1
1
0
0
0
0
0
0
0
0
0
0
0
0
0
0
0
0
0
0
0
0
0
0
0
0
0
0
0
0
0
0
0
0
0
1
1
0
0
0
0
0
0
0
0
0
0
0
0
0
0
0
0
0
0
0
0
1
1
0
0
0
0
0
0
0
0
0
0
0
0
0
0
0
0
0
0
0
0
0
0
0
0
0
0
0
0
0
0
0
0
0
1
1
0
0
0
0
0
0
0
0
0
0
0
0
0
0
0
0
0
0
0
0
1
1
0
0
0
0
0
0
0
0
0
0
0
0
0
0
0
0
0
0
0
0
0
0
0
0
0
0
0
0
0
0
0
0
0
1
1
0
0
0
0
0
0
0
0
0
0
0
0
0
0
0
0
0
0
0
0
1
1
0
0
0
0
0
0
0
0
0
0
0
0
0
0
0
0
0
0
0
0
0
0
0
0
0
0
0
0
0
0
0
0
0
1
1
0
0
0
0
0
0
0
0
0
0
0
0
0
0
0
0
0
0
0
0
1
1
0
0
0
0
0
0
0
0
0
0
0
0
0
0
0
0
0
0
0
0
0
0
0
0
0
0
0
0
0
0
0
0
0
1
1
0
0
0
0
0
0
0
0
0
0
0
0
0
0
0
0
0
0
0
0
1
1
0
0
0
0
0
0
0
0
0
0
0
0
0
0
0
0
0
0
0
0
0
0
0
0
0
0
0
0
0
0
0
0
0
1
1
0
0
0
0
0
0
0
0
0
0
0
0
0
0
0
0
0
0
0
0
1
1
0
0
0
0
0
0
0
0
0
0
0
0
0
0
0
0
0
0
0
0
0
0
0
0
0
0
0
0
0
0
0
0
0
1
1
0
0
0
0
0
0
0
0
0
0
0
0
0
0
0
0
0
0
0
0
1
1
0
0
0
0
0
0
0
0
0
0
0
0
0
0
0
0
0
0
0
0
0
0
0
0
0
0
0
0
0
0
0
0
0
1
1
1
1
1
1
1
1
1
1
1
1
1
1
1
1
1
1
1
1
1
1
1
1
1
1
1
1
1
1
1
1
1
1
1
1
1
1
1
1
1
1
1
1
1
1
1
1
1
1
1
1
1
1
1
1
1
1
				</DataArray>
				<DataArray type="Float64" Name="h" NumberOfComponents="1" Format="ascii">
1.1104813458
1.1082528732
1.1078177326
1.1069605276
1.1057068475
1.1040931416
1.1021649531
1.0999749014
1.0975802615
1.0950412163
1.0924192465
1.0897756422
1.0871709100
1.0846641075
1.0823122516
1.0801701516
1.0782895366
1.0767180196
1.0754978212
1.0746634667
1.0742397386
1.0742397386
1.3008493619
1.3011897351
1.3011197874
1.3009749266
1.3007442834
1.3004110339
1.2999500851
1.2993239674
1.2984794376
1.2973448263
1.2958305421
1.2938354691
1.2912602565
1.2880273327
1.2841060868
1.2795381677
1.2744533231
1.2690683295
1.2636643225
1.2585439636
1.2539817635
1.2501821863
1.2472559997
1.2452189203
1.2440072867
1.2435023001
1.2435545405
1.2440045314
1.2446982781
1.2454963551
1.2462792360
1.2469508046
1.2474387191
1.2476945498
1.2476945498
1.1082528732
1.1060037328
1.1055716220
1.1047206393
1.1034767204
1.1018768172
1.0999671085
1.0978009401
1.0954362947
1.0929339181
1.0903555632
1.0877623391
1.0852139895
1.0827681414
1.0804797076
1.0784007963
1.0765799956
1.0750615958
1.0738846130
1.0730807916
1.0726728705
1.0742397386
1.3011897351
1.3014369089
1.3013671663
1.3012248277
1.3010032384
1.3006918373
1.3002737309
1.2997213313
1.2989924081
1.2980264205
1.2967434180
1.2950481216
1.2928403065
1.2900319238
1.2865703003
1.2824637535
1.2778013631
1.2727593452
1.2675875951
1.2625744801
1.2579998854
1.2540901259
1.2509869040
1.2487378595
1.2473062496
1.2465923667
1.2464580906
1.2467490401
1.2473121402
1.2480065729
1.2487104608
1.2493252399
1.2497765052
1.2500143781
1.2476945498
1.1084895639
1.1062350454
1.1058060982
1.1049612568
1.1037261031
1.1021370978
1.1002398330
1.0980870220
1.0957360177
1.0932469816
1.0906811637
1.0880992741
1.0855607714
1.0831231134
1.0808411536
1.0787670451
1.0769495204
1.0754331082
1.0742571420
1.0734537209
1.0730459029
1.0745969580
1.3007890842
1.3010301337
1.3009673504
1.3008387066
1.3006370860
1.3003512226
1.2999632273
1.2994441670
1.2987501225
1.2978186007
1.2965676204
1.2949000969
1.2927145605
1.2899225662
1.2864720235
1.2823726403
1.2777151884
1.2726771415
1.2675085119
1.2624963291
1.2579179505
1.2539967415
1.2508719833
1.2485901364
1.2471148160
1.2463481032
1.2461547134
1.2463837007
1.2468856166
1.2475231297
1.2481774890
1.2487527508
1.2491765289
1.2494003124
1.2472124030
1.1089540240
1.1066895520
1.1062669159
1.1054343340
1.1042166978
1.1026495082
1.1007772096
1.0986512760
1.0963278217
1.0938658544
1.0913256240
1.0887670374
1.0862489666
1.0838285021
1.0815603414
1.0794966813
1.0776864928
1.0761747348
1.0750013368
1.0741990812
1.0737916537
1.0753114171
1.3000065046
1.3002358795
1.3001867309
1.3000849033
1.2999223458
1.2996863653
1.2993570617
1.2989027922
1.2982762510
1.2974110534
1.2962212076
1.2946061186
1.2924619835
1.2896997677
1.2862687659
1.2821816617
1.2775327456
1.2725020662
1.2673398788
1.2623305460
1.2577464212
1.2538050714
1.2506410450
1.2482985046
1.2467417432
1.2458762590
1.2455721676
1.2456850378
1.2460722730
1.2466031067
1.2471646545
1.2476658797
1.2480381684
1.2482355619
1.2462988779
1.1096297738
1.1073523505
1.1069391365
1.1061248773
1.1049334699
1.1033990319
1.1015643496
1.0994791005
1.0971975956
1.0947771500
1.0922765293
1.0897544257
1.0872687923
1.0848761020
1.0826307247
1.0805848092
1.0787875613
1.0772844647
1.0761162445
1.0753166433
1.0749102580
1.0763839440
1.2988782237
1.2990915546
1.2990621292
1.2989990561
1.2988928575
1.2987286637
1.2984835139
1.2981216612
1.2975907081
1.2968184802
1.2957131152
1.2941690256
1.2920793172
1.2893545833
1.2859467351
1.2818733810
1.2772343801
1.2722137382
1.2670620432
1.2620596291
1.2574714254
1.2535065068
1.2502925600
1.2478704287
1.2462053261
1.2452075076
1.2447545704
1.2447110536
1.2449437371
1.2453307861
1.2457672586
1.2461687327
1.2464716637
1.2466335145
1.2450444428
1.1104936047
1.1082025615
1.1078018121
1.1070118261
1.1058552501
1.1043644585
1.1025801423
1.1005496992
1.0983251379
1.0959615905
1.0935158793
1.0910450650
1.0886058120
1.0862536534
1.0840423563
1.0820238004
1.0802472775
1.0787587497
1.0775998187
1.0768053862
1.0764012110
1.0778150657
1.2974537081
1.2976483928
1.2976439388
1.2976298629
1.2975947382
1.2975207241
1.2973807000
1.2971333836
1.2967195865
1.2960595384
1.2950538648
1.2935908775
1.2915603579
1.2888733653
1.2854862687
1.2814240150
1.2767943048
1.2717864548
1.2666512994
1.2616636280
1.2570785191
1.2530940117
1.2498290067
1.2473201161
1.2455336112
1.2443854837
1.2437623045
1.2435392860
1.2435942751
1.2438158968
1.2441084448
1.2443951449
1.2446182848
1.2447392511
1.2435649849
1.1115174273
1.1092151065
1.1088297512
1.1080697951
1.1069564358
1.1055200247
1.1037988135
1.1018375325
1.0996854754
1.0973951699
1.0950210751
1.0926182078
1.0902415360
1.0879452485
1.0857821102
1.0838033485
1.0820580073
1.0805922961
1.0794486175
1.0786631314
1.0782629676
1.0796046095
1.2957908718
1.2959666302
1.2959913170
1.2960343066
1.2960816630
1.2961117276
1.2960920671
1.2959744060
1.2956911142
1.2951531963
1.2942524806
1.2928706291
1.2908945969
1.2882375552
1.2848628923
1.2808057675
1.2761840897
1.2711935946
1.2660848694
1.2611253054
1.2565575903
1.2525662968
1.2492598155
1.2466697256
1.2447633892
1.2434631516
1.2426654651
1.2422571850
1.2421281134
1.2421780671
1.2423211345
1.2424885918
1.2426288280
1.2427073153
1.2419841129
1.1126710892
1.1103634036
1.1099962083
1.1092717457
1.1082096330
1.1068380104
1.1051924541
1.1033147519
1.1012511771
1.0990513189
1.0967669116
1.0944505329
1.0921550172
1.0899327223
1.0878348749
1.0859114820
1.0842107880
1.0827787935
1.0816584340
1.0808871025
1.0804934657
1.0817522315
1.2939512889
1.2941106222
1.2941672679
1.2942726776
1.2944098212
1.2945523376
1.2946613002
1.2946800064
1.2945308679
1.2941143467
1.2933127254
1.2920012318
1.2900654177
1.2874231403
1.2840480864
1.2799888105
1.2753756130
1.2704111875
1.2653446851
1.2604337162
1.2559058335
1.2519298008
1.2486019826
1.2459482555
1.2439370375
1.2424973459
1.2415359346
1.2409516664
1.2406465380
1.2405316568
1.2405308918
1.2405834857
1.2406438202
1.2406813566
1.2404168808
1.1139240282
1.1116208745
1.1112743859
1.1105904791
1.1095871295
1.1082901763
1.1067324005
1.1049524981
1.1029935374
1.1009019401
1.0987264291
1.0965167837
1.0943232510
1.0921957970
1.0901834390
1.0883342006
1.0866947346
1.0853101214
1.0842233401
1.0834728528
1.0830889904
1.0842562229
1.2919935403
1.2921419997
1.2922318175
1.2924017995
1.2926312394
1.2928881919
1.2931260872
1.2932784742
1.2932565567
1.2929494217
1.2922297974
1.2909676528
1.2890496116
1.2864017236
1.2830118092
1.2789449875
1.2743455464
1.2694227212
1.2644220752
1.2595884022
1.2551311603
1.2512010909
1.2478812756
1.2451914080
1.2431009326
1.2415456659
1.2404427447
1.2397029840
1.2392403722
1.2389769879
1.2388460978
1.2387945236
1.2387822983
1.2387826216
1.2389611156
1.1152471885
1.1129626590
1.1126391517
1.1120003560
1.1110626149
1.1098494755
1.1083909251
1.1067225488
1.1048841558
1.1029188879
1.1008722610
1.0987909480
1.0967221571
1.0947128437
1.0928090200
1.0910557711
1.0894971180
1.0881762364
1.0871354154
1.0864138771
1.0860437229
1.0871130119
1.2899677642
1.2901140072
1.2902363205
1.2904692915
1.2907880228
1.2911541895
1.2915125683
1.2917858971
1.2918733698
1.2916525617
1.2909875784
1.2897454050
1.2878172833
1.2851417341
1.2817247543
1.2776507101
1.2730784006
1.2682218754
1.2633198326
1.2586005790
1.2542524164
1.2504061069
1.2471305544
1.2444390608
1.2423021643
1.2406625356
1.2394475907
1.2385798044
1.2379847129
1.2375948314
1.2373522638
1.2372108847
1.2371359396
1.2371040520
1.2376927670
1.1166152731
1.1143676337
1.1140690676
1.1134793440
1.1126132510
1.1114921498
1.1101433527
1.1085994452
1.1068970555
1.1050760554
1.1031786576
1.1012481868
1.0993283803
1.0974625269
1.0956927344
1.0940600189
1.0926044863
1.0913661412
1.0903855928
1.0897023648
1.0893504399
1.0903178036
1.2879119767
1.2880675995
1.2882194724
1.2885094439
1.2889080901
1.2893701406
1.2898310246
1.2902020738
1.2903703528
1.2902027087
1.2895566697
1.2882996634
1.2863320335
1.2836094797
1.2801599072
1.2760885473
1.2715676880
1.2668129085
1.2620516532
1.2574916212
1.2532970285
1.2495771490
1.2463863014
1.2437315428
1.2415847485
1.2398955261
1.2386014084
1.2376361511
1.2369363111
1.2364442460
1.2361103037
1.2358948718
1.2357679684
1.2357093315
1.2366649773
1.1180073213
1.1158187551
1.1155467468
1.1150094027
1.1142200973
1.1131982018
1.1119685832
1.1105610617
1.1090092888
1.1073499953
1.1056220961
1.1038653975
1.1021197675
1.1004241560
1.0988157913
1.0973303427
1.0960024972
1.0948675493
1.0939631761
1.0933286037
1.0929998532
1.0938637999
1.2858473622
1.2860265740
1.2862024583
1.2865384270
1.2870005263
1.2875363923
1.2880719477
1.2885072380
1.2887180096
1.2885622925
1.2878942934
1.2865863807
1.2845531159
1.2817719897
1.2782955891
1.2742499617
1.2698179419
1.2652117444
1.2606422800
1.2562924154
1.2522998025
1.2487513828
1.2456870837
1.2431082817
1.2409886607
1.2392849420
1.2379446440
1.2369124376
1.2361353977
1.2355651731
1.2351598201
1.2348857618
1.2347174072
1.2346373437
1.2359116565
1.1194071753
1.1173032810
1.1170590894
1.1165767471
1.1158684143
1.1149517505
1.1138495077
1.1125890871
1.1112014820
1.1097205197
1.1081819156
1.1066218595
1.1050759915
1.1035782540
1.1021599751
1.1008500916
1.0996761850
1.0986670485
1.0978559191
1.0972809922
1.0969805789
1.0977420821
1.2837763808
1.2839956395
1.2841870219
1.2845523984
1.2850538075
1.2856322850
1.2862048778
1.2866614499
1.2868684187
1.2866781971
1.2859461408
1.2845549045
1.2824385391
1.2796001708
1.2761181719
1.2721371566
1.2678454537
1.2634455927
1.2591261981
1.2550414285
1.2513006874
1.2479685913
1.2450715441
1.2426062400
1.2405488857
1.2388636161
1.2375078800
1.2364369704
1.2356080588
1.2349816299
1.2345230164
1.2342042968
1.2340039725
1.2339072770
1.2354512520
1.1208040793
1.1188131426
1.1185976693
1.1181722641
1.1175481251
1.1167415530
1.1157736049
1.1146697071
1.1134586122
1.1121715730
1.1108412832
1.1095002784
1.1081796551
1.1069076974
1.1057088011
1.1046037259
1.1036111284
1.1027512913
1.1020512478
1.1015472884
1.1012803983
1.1019427919
1.2816844906
1.2819622179
1.2821572597
1.2825293237
1.2830377101
1.2836182326
1.2841807465
1.2846072958
1.2847583621
1.2844853371
1.2836503161
1.2821520745
1.2799489629
1.2770720618
1.2736242777
1.2697639675
1.2656778506
1.2615514377
1.2575453993
1.2537821374
1.2503422048
1.2472688624
1.2445765327
1.2422586307
1.2402948169
1.2386570618
1.2373127806
1.2362276899
1.2353687413
1.2347049157
1.2342085058
1.2338569707
1.2336326932
1.2335234121
1.2352902291
1.1221917699
1.1203438363
1.1201576405
1.1197904484
1.1192527972
1.1185600483
1.1177320631
1.1167928202
1.1157693278
1.1146906643
1.1135867358
1.1124864306
1.1114160197
1.1103975073
1.1094473468
1.1085766735
1.1077933349
1.1071069248
1.1065362555
1.1061146671
1.1058863494
1.1064551148
1.2795417117
1.2798982282
1.2800815653
1.2804312804
1.2809061587
1.2814392506
1.2819361746
1.2822749940
1.2823152165
1.2819132230
1.2809443452
1.2793293045
1.2770543676
1.2741785788
1.2708252091
1.2671588346
1.2633557508
1.2595767250
1.2559495153
1.2525629754
1.2494694755
1.2466928679
1.2442377491
1.2420959919
1.2402518167
1.2386855512
1.2373747017
1.2362953081
1.2354238919
1.2347377032
1.2342157900
1.2338408132
1.2335989045
1.2334802232
1.2354270057
1.1235676449
1.1218933980
1.1217367186
1.1214283995
1.1209786635
1.1204024135
1.1197188828
1.1189511971
1.1181251775
1.1172681729
1.1164075681
1.1155686326
1.1147725532
1.1140344693
1.1133619398
1.1127550956
1.1122091139
1.1117206205
1.1112979322
1.1109701444
1.1107852789
1.1112677572
1.2773092869
1.2777669900
1.2779197021
1.2782119299
1.2786052738
1.2790336675
1.2794028501
1.2795923715
1.2794673825
1.2788966008
1.2777756582
1.2760524117
1.2737426687
1.2709304235
1.2677518923
1.2643678531
1.2609342827
1.2575798508
1.2543957579
1.2514370820
1.2487300066
1.2462818173
1.2440899363
1.2421466717
1.2404420251
1.2389652734
1.2377042105
1.2366451845
1.2357741697
1.2350765554
1.2345380325
1.2341463634
1.2338913594
1.2337655598
1.2358542264
1.1249321610
1.1234616440
1.1233344290
1.1230850838
1.1227239069
1.1222658790
1.1217302323
1.1211398892
1.1205200798
1.1198968918
1.1192954605
1.1187374648
1.1182387596
1.1178070826
1.1174402514
1.1171261662
1.1168456132
1.1165799641
1.1163244945
1.1161023530
1.1159659293
1.1163709115
1.2749519195
1.2755355909
1.2756353368
1.2758294911
1.2760869446
1.2763473018
1.2765221995
1.2764998222
1.2761592329
1.2753899791
1.2741151588
1.2723136011
1.2700295143
1.2673653048
1.2644595034
1.2614571681
1.2584838575
1.2556299541
1.2529482414
1.2504614888
1.2481729203
1.2460768203
1.2441664261
1.2424365896
1.2408843647
1.2395086004
1.2383076189
1.2372781230
1.2364154900
1.2357131881
1.2351635046
1.2347592582
1.2344939136
1.2343623799
1.2365599076
1.1262872455
1.1250484581
1.1249504012
1.1247596441
1.1244869913
1.1241480875
1.1237628409
1.1233546594
1.1229488003
1.1225705562
1.1222430668
1.1219844268
1.1218049158
1.1217043983
1.1216702659
1.1216772288
1.1216902575
1.1216733172
1.1216058231
1.1215026212
1.1214205449
1.1217575931
1.2724494060
1.2731864075
1.2732078961
1.2732594723
1.2733227491
1.2733486395
1.2732617051
1.2729675007
1.2723687523
1.2713851013
1.2699737422
1.2681461738
1.2659704689
1.2635572510
1.2610340397
1.2585173310
1.2560929913
1.2538088096
1.2516793611
1.2496982081
1.2478498610
1.2461196659
1.2444998309
1.2429898821
1.2415951808
1.2403247576
1.2391877128
1.2381911757
1.2373399074
1.2366354295
1.2360766128
1.2356613128
1.2353866427
1.2352498860
1.2375281892
1.1276349441
1.1266523206
1.1265828959
1.1264499221
1.1262651752
1.1260455931
1.1258124761
1.1255904334
1.1254053717
1.1252822367
1.1252423916
1.1253003229
1.1254605003
1.1257145437
1.1260389774
1.1263947729
1.1267301640
1.1269898977
1.1271344673
1.1271670733
1.1271479869
1.1274263262
1.2698114073
1.2707312588
1.2706470511
1.2705102310
1.2703209288
1.2700472277
1.2696345155
1.2690157497
1.2681281606
1.2669308978
1.2654205370
1.2636400542
1.2616731509
1.2596252328
1.2575978601
1.2556665129
1.2538699703
1.2522115386
1.2506699114
1.2492139501
1.2478144152
1.2464520212
1.2451210939
1.2438278754
1.2425872001
1.2414188207
1.2403428207
1.2393768027
1.2385348742
1.2378265729
1.2372573325
1.2368300192
1.2365453853
1.2364030911
1.2387386949
1.1289761343
1.1282689783
1.1282274684
1.1281511049
1.1280531305
1.1279524389
1.1278724671
1.1278397583
1.1278814890
1.1280226846
1.1282831212
1.1286736390
1.1291927071
1.1298234935
1.1305315693
1.1312642094
1.1319527544
1.1325215458
1.1329089502
1.1331017982
1.1331608759
1.1333876239
1.2670895307
1.2682222857
1.2680039997
1.2676358342
1.2671412156
1.2665104022
1.2657177571
1.2647344308
1.2635433865
1.2621519372
1.2605990515
1.2589545698
1.2573061458
1.2557384099
1.2543119999
1.2530508079
1.2519419334
1.2509449979
1.2500070727
1.2490778637
1.2481197065
1.2471129657
1.2460570435
1.2449667291
1.2438673171
1.2427896769
1.2417649673
1.2408212179
1.2399817659
1.2392640612
1.2386800250
1.2382374649
1.2379407302
1.2377918399
1.2401654869
1.1303087364
1.1298896842
1.1298751770
1.1298538712
1.1298409897
1.1298580649
1.1299314358
1.1300903290
1.1303638212
1.1307774523
1.1313496216
1.1320875401
1.1329836239
1.1340126667
1.1351297105
1.1362691767
1.1373464083
1.1382651317
1.1389384429
1.1393303621
1.1394967460
1.1396742579
1.2643720962
1.2657451339
1.2653654714
1.2647330949
1.2638955487
1.2628677270
1.2616604345
1.2602936351
1.2588064615
1.2572609807
1.2557383017
1.2543269586
1.2531044371
1.2521187736
1.2513767449
1.2508434973
1.2504533779
1.2501258365
1.2497821721
1.2493590902
1.2488158217
1.2481363700
1.2473277990
1.2464149306
1.2454342178
1.2444278024
1.2434378100
1.2425024793
1.2416541113
1.2409178376
1.2403118866
1.2398488557
1.2395365895
1.2393794071
1.2417756526
1.1316261934
1.1314997625
1.1315110634
1.1315426943
1.1316123694
1.1317449440
1.1319704311
1.1323215171
1.1328298623
1.1335220498
1.1344154712
1.1355139771
1.1368042630
1.1382534039
1.1398071674
1.1413890993
1.1429008545
1.1442266938
1.1452515787
1.1459081884
1.1462401839
1.1463624833
1.2617533708
1.2633868631
1.2628236746
1.2619175856
1.2607308593
1.2593004202
1.2576789312
1.2559440895
1.2541990093
1.2525633567
1.2511560367
1.2500731466
1.2493674168
1.2490368471
1.2490258060
1.2492384117
1.2495591936
1.2498734847
1.2500837968
1.2501201259
1.2499435260
1.2495450453
1.2489414061
1.2481684369
1.2472740199
1.2463113700
1.2453331708
1.2443873926
1.2435148130
1.2427478267
1.2421106358
1.2416203563
1.2412881394
1.2411204882
1.2435273245
1.1329163350
1.1330777109
1.1331131096
1.1331944930
1.1333425263
1.1335860104
1.1339593576
1.1344994898
1.1352414131
1.1362134852
1.1374328460
1.1389008870
1.1405998724
1.1424911874
1.1445144247
1.1465865618
1.1486005625
1.1504248683
1.1519141447
1.1529577214
1.1535807473
1.1536291510
1.2592424531
1.2611457502
1.2603967762
1.2592624482
1.2577851813
1.2560122560
1.2540396456
1.2520078851
1.2500870842
1.2484522231
1.2472517995
1.2465774934
1.2464455839
1.2467964003
1.2475102516
1.2484340326
1.2494095459
1.2502961664
1.2509851215
1.2514055521
1.2515244130
1.2513422720
1.2508866599
1.2502046734
1.2493553119
1.2484021875
1.2474077340
1.2464288384
1.2455139845
1.2447021760
1.2440230619
1.2434978612
1.2431407353
1.2429601851
1.2453687078
1.1341621184
1.1345963137
1.1346531987
1.1347792544
1.1349983834
1.1353437214
1.1358545433
1.1365725424
1.1375366697
1.1387777845
1.1403138207
1.1421453774
1.1442531117
1.1465974947
1.1491195677
1.1517410141
1.1543610461
1.1568484215
1.1590370216
1.1607627770
1.1620330258
1.1619715723
1.2564760194
1.2586530533
1.2578467229
1.2567021663
1.2551475275
1.2532219510
1.2510669206
1.2488898236
1.2469277253
1.2454058126
1.2444938037
1.2442709509
1.2447130865
1.2457046383
1.2470689359
1.2486058232
1.2501249807
1.2514691122
1.2525252372
1.2532263071
1.2535478488
1.2535010991
1.2531244306
1.2524755683
1.2516236003
1.2506412933
1.2495995624
1.2485630131
1.2475867533
1.2467154839
1.2459835681
1.2454157566
1.2450288127
1.2448329748
1.2472370810
1.1353455121
1.1360270083
1.1361015792
1.1362646647
1.1365433281
1.1369748896
1.1376032330
1.1384744548
1.1396309263
1.1411053495
1.1429158307
1.1450619415
1.1475237244
1.1502646995
1.1532373887
1.1563899095
1.1596709143
1.1630296625
1.1664193562
1.1698562828
1.1737893771
1.1735784100
1.2512902253
1.2537963623
1.2544126452
1.2541865653
1.2531165763
1.2514045662
1.2493254413
1.2471922441
1.2453219775
1.2439908940
1.2433875072
1.2435790203
1.2445068926
1.2460109837
1.2478719112
1.2498566536
1.2517545239
1.2534000301
1.2546812363
1.2555374679
1.2559535297
1.2559508296
1.2555773304
1.2548997656
1.2539955381
1.2529447640
1.2518251264
1.2507073925
1.2496519284
1.2487079893
1.2479137348
1.2472967417
1.2468758691
1.2466627678
1.2490588755
1.1364538622
1.1373469193
1.1374345969
1.1376253207
1.1379488546
1.1384459630
1.1391640425
1.1401520163
1.1414533189
1.1430988684
1.1451012538
1.1474498219
1.1501088969
1.1530200328
1.1561052162
1.1592679335
1.1623859755
1.1652850541
1.1676908582
1.1691957237
1.1694830380
1.1686998644
1.1760053359
1.2033167948
1.2669727948
1.2603477750
1.2581525432
1.2564948258
1.2546415888
1.2524783267
1.2501358484
1.2478702582
1.2459812574
1.2447383839
1.2443177144
1.2447629838
1.2459840407
1.2477871702
1.2499242029
1.2521420263
1.2542189610
1.2559869266
1.2573374291
1.2582162446
1.2586161596
1.2585667421
1.2581232175
1.2573589444
1.2563573231
1.2552036316
1.2539803173
1.2527625239
1.2516143343
1.2505882735
1.2497252658
1.2490549287
1.2485976534
1.2483661385
1.2507528985
1.1374856891
1.1385454062
1.1386420745
1.1388519816
1.1392071947
1.1397514153
1.1405350438
1.1416094820
1.1430192260
1.1447940643
1.1469429431
1.1494490685
1.1522693295
1.1553397563
1.1585840434
1.1619240363
1.1652892728
1.1686188892
1.1718630170
1.1750203648
1.1783196106
1.1820785405
1.1791935782
1.2059914042
1.2462408359
1.2517188008
1.2544339073
1.2553952183
1.2550382313
1.2537461806
1.2519183355
1.2499691995
1.2482939888
1.2472172857
1.2469418986
1.2475193130
1.2488563328
1.2507515951
1.2529498228
1.2551938580
1.2572611745
1.2589862248
1.2602654063
1.2610500900
1.2613389881
1.2611672860
1.2605948379
1.2596990755
1.2585669929
1.2572868173
1.2559437457
1.2546155024
1.2533683473
1.2522567856
1.2513234676
1.2505992679
1.2501055449
1.2498556792
1.2522336642
1.1384479171
1.1396220194
1.1397246457
1.1399474784
1.1403245780
1.1409022819
1.1417338907
1.1428736060
1.1443679707
1.1462475366
1.1485206179
1.1511685299
1.1541461755
1.1573902755
1.1608318444
1.1644124957
1.1681016443
1.1719049157
1.1758641327
1.1800560300
1.1845800868
1.1891019730
1.1899305288
1.2098535644
1.2393098219
1.2484844668
1.2532176744
1.2556011574
1.2563224970
1.2558444915
1.2546158694
1.2530932027
1.2517072992
1.2508113734
1.2506302387
1.2512325740
1.2525392353
1.2543602893
1.2564503074
1.2585606859
1.2604757927
1.2620361276
1.2631434623
1.2637534741
1.2638686603
1.2635274251
1.2627919171
1.2617414261
1.2604644641
1.2590503039
1.2575851357
1.2561476777
1.2548050037
1.2536124469
1.2526134477
1.2518394384
1.2513122392
1.2510455826
1.2534169247
1.1393477756
1.1405790167
1.1406854269
1.1409166113
1.1413082401
1.1419088944
1.1427745635
1.1439624129
1.1455217546
1.1474852774
1.1498625858
1.1526352251
1.1557576653
1.1591668943
1.1627966324
1.1665959493
1.1705486825
1.1746809146
1.1790522579
1.1837236879
1.1886559769
1.1932726333
1.1958638004
1.2114332602
1.2344795893
1.2458488039
1.2523779476
1.2560692158
1.2577867039
1.2580897841
1.2574696919
1.2564016347
1.2553270624
1.2546101164
1.2544903003
1.2550556644
1.2562494773
1.2579039993
1.2597936929
1.2616860355
1.2633768285
1.2647144164
1.2656057836
1.2660097229
1.2659308683
1.2654091188
1.2645073304
1.2633051394
1.2618911186
1.2603542293
1.2587803503
1.2572479747
1.2558239346
1.2545634796
1.2535100902
1.2526952027
1.2521406970
1.2518603907
1.2542283294
1.1401886714
1.1414175919
1.1415259331
1.1417614649
1.1421609273
1.1427745146
1.1436603664
1.1448783383
1.1464806865
1.1485029481
1.1509571522
1.1538263341
1.1570652879
1.1606104577
1.1643945856
1.1683660806
1.1725091303
1.1768502065
1.1814453298
1.1863368617
1.1914289200
1.1961273720
1.1995268623
1.2120414871
1.2309176669
1.2432836206
1.2511482915
1.2559214201
1.2584924720
1.2594905496
1.2594408808
1.2588249357
1.2580794160
1.2575654036
1.2575276682
1.2580695143
1.2591567748
1.2606466391
1.2623369123
1.2640140715
1.2654872771
1.2666134634
1.2673046895
1.2675223609
1.2672725629
1.2665959834
1.2655555734
1.2642306542
1.2627091231
1.2610788890
1.2594247233
1.2578240929
1.2563428798
1.2550356144
1.2539452793
1.2531029272
1.2525302109
1.2522408402
1.2546091841
1.1409695190
1.1421373006
1.1422456482
1.1424813189
1.1428814453
1.1434969855
1.1443873836
1.1456145057
1.1472332598
1.1492822750
1.1517767691
1.1547024373
1.1580155902
1.1616526176
1.1655442904
1.1696350486
1.1739031777
1.1783669031
1.1830706140
1.1880396136
1.1931548700
1.1978472549
1.2015014603
1.2122334454
1.2287344890
1.2411779978
1.2495643004
1.2548538849
1.2578974037
1.2593447540
1.2597244209
1.2595007319
1.2590847904
1.2588156487
1.2589272750
1.2595258417
1.2605912034
1.2620004546
1.2635721881
1.2651108342
1.2664387925
1.2674217516