<VTKFile type="UnstructuredGrid" version="0.1">
	<UnstructuredGrid>
		<Piece NumberOfPoints="13548" NumberOfCells="3387">
			<CellData>
				<DataArray type="Int32" Name="ghost" NumberOfComponents="1" Format="ascii">
1
1
1
1
1
1
1
1
1
1
1
1
1
1
1
1
1
1
1
1
1
1
1
1
1
1
1
1
1
1
1
1
1
1
1
1
1
1
1
1
1
1
1
1
1
1
1
1
1
1
1
1
1
1
1
1
1
1
0
0
0
0
0
0
0
0
0
0
0
0
0
0
0
0
0
0
0
0
1
1
0
0
0
0
0
0
0
0
0
0
0
0
0
0
0
0
0
0
0
0
0
0
0
0
0
0
0
0
0
0
0
0
0
1
1
0
0
0
0
0
0
0
0
0
0
0
0
0
0
0
0
0
0
0
0
1
1
0
0
0
0
0
0
0
0
0
0
0
0
0
0
0
0
0
0
0
0
0
0
0
0
0
0
0
0
0
0
0
0
0
1
1
0
0
0
0
0
0
0
0
0
0
0
0
0
0
0
0
0
0
0
0
1
1
0
0
0
0
0
0
0
0
0
0
0
0
0
0
0
0
0
0
0
0
0
0
0
0
0
0
0
0
0
0
0
0
0
1
1
0
0
0
0
0
0
0
0
0
0
0
0
0
0
0
0
0
0
0
0
1
1
0
0
0
0
0
0
0
0
0
0
0
0
0
0
0
0
0
0
0
0
0
0
0
0
0
0
0
0
0
0
0
0
0
1
1
0
0
0
0
0
0
0
0
0
0
0
0
0
0
0
0
0
0
0
0
1
1
0
0
0
0
0
0
0
0
0
0
0
0
0
0
0
0
0
0
0
0
0
0
0
0
0
0
0
0
0
0
0
0
0
1
1
0
0
0
0
0
0
0
0
0
0
0
0
0
0
0
0
0
0
0
0
1
1
0
0
0
0
0
0
0
0
0
0
0
0
0
0
0
0
0
0
0
0
0
0
0
0
0
0
0
0
0
0
0
0
0
1
1
0
0
0
0
0
0
0
0
0
0
0
0
0
0
0
0
0
0
0
0
1
1
0
0
0
0
0
0
0
0
0
0
0
0
0
0
0
0
0
0
0
0
0
0
0
0
0
0
0
0
0
0
0
0
0
1
1
0
0
0
0
0
0
0
0
0
0
0
0
0
0
0
0
0
0
0
0
1
1
0
0
0
0
0
0
0
0
0
0
0
0
0
0
0
0
0
0
0
0
0
0
0
0
0
0
0
0
0
0
0
0
0
1
1
0
0
0
0
0
0
0
0
0
0
0
0
0
0
0
0
0
0
0
0
1
1
0
0
0
0
0
0
0
0
0
0
0
0
0
0
0
0
0
0
0
0
0
0
0
0
0
0
0
0
0
0
0
0
0
1
1
0
0
0
0
0
0
0
0
0
0
0
0
0
0
0
0
0
0
0
0
1
1
0
0
0
0
0
0
0
0
0
0
0
0
0
0
0
0
0
0
0
0
0
0
0
0
0
0
0
0
0
0
0
0
0
1
1
0
0
0
0
0
0
0
0
0
0
0
0
0
0
0
0
0
0
0
0
1
1
0
0
0
0
0
0
0
0
0
0
0
0
0
0
0
0
0
0
0
0
0
0
0
0
0
0
0
0
0
0
0
0
0
1
1
0
0
0
0
0
0
0
0
0
0
0
0
0
0
0
0
0
0
0
0
1
1
0
0
0
0
0
0
0
0
0
0
0
0
0
0
0
0
0
0
0
0
0
0
0
0
0
0
0
0
0
0
0
0
0
1
1
0
0
0
0
0
0
0
0
0
0
0
0
0
0
0
0
0
0
0
0
1
1
0
0
0
0
0
0
0
0
0
0
0
0
0
0
0
0
0
0
0
0
0
0
0
0
0
0
0
0
0
0
0
0
0
1
1
0
0
0
0
0
0
0
0
0
0
0
0
0
0
0
0
0
0
0
0
1
1
0
0
0
0
0
0
0
0
0
0
0
0
0
0
0
0
0
0
0
0
0
0
0
0
0
0
0
0
0
0
0
0
0
1
1
0
0
0
0
0
0
0
0
0
0
0
0
0
0
0
0
0
0
0
0
1
1
0
0
0
0
0
0
0
0
0
0
0
0
0
0
0
0
0
0
0
0
0
0
0
0
0
0
0
0
0
0
0
0
0
1
1
0
0
0
0
0
0
0
0
0
0
0
0
0
0
0
0
0
0
0
0
1
1
0
0
0
0
0
0
0
0
0
0
0
0
0
0
0
0
0
0
0
0
0
0
0
0
0
0
0
0
0
0
0
0
0
1
1
0
0
0
0
0
0
0
0
0
0
0
0
0
0
0
0
0
0
0
0
1
1
0
0
0
0
0
0
0
0
0
0
0
0
0
0
0
0
0
0
0
0
0
0
0
0
0
0
0
0
0
0
0
0
0
1
1
0
0
0
0
0
0
0
0
0
0
0
0
0
0
0
0
0
0
0
0
1
1
0
0
0
0
0
0
0
0
0
0
0
0
0
0
0
0
0
0
0
0
0
0
0
0
0
0
0
0
0
0
0
0
0
1
1
0
0
0
0
0
0
0
0
0
0
0
0
0
0
0
0
0
0
0
0
1
1
0
0
0
0
0
0
0
0
0
0
0
0
0
0
0
0
0
0
0
0
0
0
0
0
0
0
0
0
0
0
0
0
0
1
1
0
0
0
0
0
0
0
0
0
0
0
0
0
0
0
0
0
0
0
0
1
1
0
0
0
0
0
0
0
0
0
0
0
0
0
0
0
0
0
0
0
0
0
0
0
0
0
0
0
0
0
0
0
0
0
1
1
0
0
0
0
0
0
0
0
0
0
0
0
0
0
0
0
0
0
0
0
1
1
0
0
0
0
0
0
0
0
0
0
0
0
0
0
0
0
0
0
0
0
0
0
0
0
0
0
0
0
0
0
0
0
0
1
1
0
0
0
0
0
0
0
0
0
0
0
0
0
0
0
0
0
0
0
0
1
1
0
0
0
0
0
0
0
0
0
0
0
0
0
0
0
0
0
0
0
0
0
0
0
0
0
0
0
0
0
0
0
0
0
1
1
0
0
0
0
0
0
0
0
0
0
0
0
0
0
0
0
0
0
0
0
1
1
0
0
0
0
0
0
0
0
0
0
0
0
0
0
0
0
0
0
0
0
0
0
0
0
0
0
0
0
0
0
0
0
0
1
1
0
0
0
0
0
0
0
0
0
0
0
0
0
0
0
0
0
0
0
0
1
1
0
0
0
0
0
0
0
0
0
0
0
0
0
0
0
0
0
0
0
0
0
0
0
0
0
0
0
0
0
0
0
0
0
1
1
0
0
0
0
0
0
0
0
0
0
0
0
0
0
0
0
0
0
0
0
0
1
1
0
0
0
0
0
0
0
0
0
0
0
0
0
0
0
0
0
0
0
0
0
0
0
0
0
0
0
0
0
0
0
0
0
0
1
1
0
0
0
0
0
0
0
0
0
0
0
0
0
0
0
0
0
0
0
0
0
0
0
0
0
0
0
0
0
0
0
0
0
0
0
0
0
0
0
0
0
0
0
0
0
0
0
0
0
0
0
0
0
0
0
0
0
1
1
0
0
0
0
0
0
0
0
0
0
0
0
0
0
0
0
0
0
0
0
0
0
0
0
0
0
0
0
0
0
0
0
0
0
0
0
0
0
0
0
0
0
0
0
0
0
0
0
0
0
0
0
0
0
0
0
0
1
1
0
0
0
0
0
0
0
0
0
0
0
0
0
0
0
0
0
0
0
0
0
0
0
0
0
0
0
0
0
0
0
0
0
0
0
0
0
0
0
0
0
0
0
0
0
0
0
0
0
0
0
0
0
0
0
0
0
1
1
0
0
0
0
0
0
0
0
0
0
0
0
0
0
0
0
0
0
0
0
0
0
0
0
0
0
0
0
0
0
0
0
0
0
0
0
0
0
0
0
0
0
0
0
0
0
0
0
0
0
0
0
0
0
0
0
0
1
1
0
0
0
0
0
0
0
0
0
0
0
0
0
0
0
0
0
0
0
0
0
0
0
0
0
0
0
0
0
0
0
0
0
0
0
0
0
0
0
0
0
0
0
0
0
0
0
0
0
0
0
0
0
0
0
0
0
1
1
0
0
0
0
0
0
0
0
0
0
0
0
0
0
0
0
0
0
0
0
0
0
0
0
0
0
0
0
0
0
0
0
0
0
0
0
0
0
0
0
0
0
0
0
0
0
0
0
0
0
0
0
0
0
0
0
0
1
1
0
0
0
0
0
0
0
0
0
0
0
0
0
0
0
0
0
0
0
0
0
0
0
0
0
0
0
0
0
0
0
0
0
0
0
0
0
0
0
0
0
0
0
0
0
0
0
0
0
0
0
0
0
0
0
0
0
1
1
0
0
0
0
0
0
0
0
0
0
0
0
0
0
0
0
0
0
0
0
0
0
0
0
0
0
0
0
0
0
0
0
0
0
0
0
0
0
0
0
0
0
0
0
0
0
0
0
0
0
0
0
0
0
0
0
0
1
1
0
0
0
0
0
0
0
0
0
0
0
0
0
0
0
0
0
0
0
0
0
0
0
0
0
0
0
0
0
0
0
0
0
0
0
0
0
0
0
0
0
0
0
0
0
0
0
0
0
0
0
0
0
0
0
0
0
1
1
0
0
0
0
0
0
0
0
0
0
0
0
0
0
0
0
0
0
0
0
0
0
0
0
0
0
0
0
0
0
0
0
0
0
0
0
0
0
0
0
0
0
0
0
0
0
0
0
0
0
0
0
0
0
0
0
0
1
1
0
0
0
0
0
0
0
0
0
0
0
0
0
0
0
0
0
0
0
0
0
1
1
0
0
0
0
0
0
0
0
0
0
0
0
0
0
0
0
0
0
0
0
0
0
0
0
0
0
0
0
0
0
0
0
0
0
1
1
0
0
0
0
0
0
0
0
0
0
0
0
0
0
0
0
0
0
0
0
1
1
0
0
0
0
0
0
0
0
0
0
0
0
0
0
0
0
0
0
0
0
0
0
0
0
0
0
0
0
0
0
0
0
0
1
1
0
0
0
0
0
0
0
0
0
0
0
0
0
0
0
0
0
0
0
0
1
1
0
0
0
0
0
0
0
0
0
0
0
0
0
0
0
0
0
0
0
0
0
0
0
0
0
0
0
0
0
0
0
0
0
1
1
0
0
0
0
0
0
0
0
0
0
0
0
0
0
0
0
0
0
0
0
1
1
0
0
0
0
0
0
0
0
0
0
0
0
0
0
0
0
0
0
0
0
0
0
0
0
0
0
0
0
0
0
0
0
0
1
1
0
0
0
0
0
0
0
0
0
0
0
0
0
0
0
0
0
0
0
0
1
1
0
0
0
0
0
0
0
0
0
0
0
0
0
0
0
0
0
0
0
0
0
0
0
0
0
0
0
0
0
0
0
0
0
1
1
0
0
0
0
0
0
0
0
0
0
0
0
0
0
0
0
0
0
0
0
1
1
0
0
0
0
0
0
0
0
0
0
0
0
0
0
0
0
0
0
0
0
0
0
0
0
0
0
0
0
0
0
0
0
0
1
1
0
0
0
0
0
0
0
0
0
0
0
0
0
0
0
0
0
0
0
0
1
1
0
0
0
0
0
0
0
0
0
0
0
0
0
0
0
0
0
0
0
0
0
0
0
0
0
0
0
0
0
0
0
0
0
1
1
0
0
0
0
0
0
0
0
0
0
0
0
0
0
0
0
0
0
0
0
1
1
0
0
0
0
0
0
0
0
0
0
0
0
0
0
0
0
0
0
0
0
0
0
0
0
0
0
0
0
0
0
0
0
0
1
1
0
0
0
0
0
0
0
0
0
0
0
0
0
0
0
0
0
0
0
0
1
1
0
0
0
0
0
0
0
0
0
0
0
0
0
0
0
0
0
0
0
0
0
0
0
0
0
0
0
0
0
0
0
0
0
1
1
0
0
0
0
0
0
0
0
0
0
0
0
0
0
0
0
0
0
0
0
1
1
0
0
0
0
0
0
0
0
0
0
0
0
0
0
0
0
0
0
0
0
0
0
0
0
0
0
0
0
0
0
0
0
0
1
1
0
0
0
0
0
0
0
0
0
0
0
0
0
0
0
0
0
0
0
0
1
1
0
0
0
0
0
0
0
0
0
0
0
0
0
0
0
0
0
0
0
0
0
0
0
0
0
0
0
0
0
0
0
0
0
1
1
0
0
0
0
0
0
0
0
0
0
0
0
0
0
0
0
0
0
0
0
1
1
0
0
0
0
0
0
0
0
0
0
0
0
0
0
0
0
0
0
0
0
0
0
0
0
0
0
0
0
0
0
0
0
0
1
1
0
0
0
0
0
0
0
0
0
0
0
0
0
0
0
0
0
0
0
0
1
1
0
0
0
0
0
0
0
0
0
0
0
0
0
0
0
0
0
0
0
0
0
0
0
0
0
0
0
0
0
0
0
0
0
1
1
0
0
0
0
0
0
0
0
0
0
0
0
0
0
0
0
0
0
0
0
1
1
0
0
0
0
0
0
0
0
0
0
0
0
0
0
0
0
0
0
0
0
0
0
0
0
0
0
0
0
0
0
0
0
0
1
1
0
0
0
0
0
0
0
0
0
0
0
0
0
0
0
0
0
0
0
0
1
1
0
0
0
0
0
0
0
0
0
0
0
0
0
0
0
0
0
0
0
0
0
0
0
0
0
0
0
0
0
0
0
0
0
1
1
0
0
0
0
0
0
0
0
0
0
0
0
0
0
0
0
0
0
0
0
1
1
0
0
0
0
0
0
0
0
0
0
0
0
0
0
0
0
0
0
0
0
0
0
0
0
0
0
0
0
0
0
0
0
0
1
1
0
0
0
0
0
0
0
0
0
0
0
0
0
0
0
0
0
0
0
0
1
1
0
0
0
0
0
0
0
0
0
0
0
0
0
0
0
0
0
0
0
0
0
0
0
0
0
0
0
0
0
0
0
0
0
1
1
0
0
0
0
0
0
0
0
0
0
0
0
0
0
0
0
0
0
0
0
1
1
0
0
0
0
0
0
0
0
0
0
0
0
0
0
0
0
0
0
0
0
0
0
0
0
0
0
0
0
0
0
0
0
0
1
1
0
0
0
0
0
0
0
0
0
0
0
0
0
0
0
0
0
0
0
0
1
1
0
0
0
0
0
0
0
0
0
0
0
0
0
0
0
0
0
0
0
0
0
0
0
0
0
0
0
0
0
0
0
0
0
1
1
0
0
0
0
0
0
0
0
0
0
0
0
0
0
0
0
0
0
0
0
1
1
0
0
0
0
0
0
0
0
0
0
0
0
0
0
0
0
0
0
0
0
0
0
0
0
0
0
0
0
0
0
0
0
0
1
1
0
0
0
0
0
0
0
0
0
0
0
0
0
0
0
0
0
0
0
0
1
1
0
0
0
0
0
0
0
0
0
0
0
0
0
0
0
0
0
0
0
0
0
0
0
0
0
0
0
0
0
0
0
0
0
1
1
0
0
0
0
0
0
0
0
0
0
0
0
0
0
0
0
0
0
0
0
1
1
0
0
0
0
0
0
0
0
0
0
0
0
0
0
0
0
0
0
0
0
0
0
0
0
0
0
0
0
0
0
0
0
0
1
1
1
1
1
1
1
1
1
1
1
1
1
1
1
1
1
1
1
1
1
1
1
1
1
1
1
1
1
1
1
1
1
1
1
1
1
1
1
1
1
1
1
1
1
1
1
1
1
1
1
1
1
1
1
1
1
1
				</DataArray>
				<DataArray type="Float64" Name="h" NumberOfComponents="1" Format="ascii">
1.4997004927
1.4994875702
1.4992895029
1.4988777901
1.4982275214
1.4973145086
1.4961257802
1.4946672020
1.4929661634
1.4910697242
1.4890393632
1.4869440640
1.4848540400
1.4828356840
1.4809482187
1.4792423766
1.4777600572
1.4765348532
1.4755930521
1.4749541662
1.4746313483
1.4746313483
1.0026423135
1.0034617438
1.0033317799
1.0030841347
1.0027420929
1.0023371531
1.0019050329
1.0014808696
1.0010944581
1.0007665742
1.0005071670
1.0003158929
1.0001846154
1.0001008907
1.0000513754
1.0000242879
1.0000106182
1.0000042745
1.0000015772
1.0000005306
1.0000001618
1.0000000444
1.0000000109
1.0000000024
1.0000000004
1.0000000001
1.0000000000
1.0000000000
1.0000000000
1.0000000000
1.0000000000
1.0000000000
1.0000000000
1.0000000000
1.0000000000
1.4994875702
1.4991625597
1.4988935316
1.4983449817
1.4975018220
1.4963535325
1.4949031992
1.4931732324
1.4912060683
1.4890608078
1.4868071620
1.4845184922
1.4822661241
1.4801151555
1.4781220203
1.4763339791
1.4747893530
1.4735184546
1.4725448330
1.4718859003
1.4715534067
1.4746313483
1.0034617438
1.0044712658
1.0043151335
1.0040162837
1.0036004128
1.0031028649
1.0025646808
1.0020275701
1.0015285593
1.0010954185
1.0007438145
1.0004770027
1.0002879666
1.0001631201
1.0000864102
1.0000426607
1.0000195578
1.0000082938
1.0000032398
1.0000011604
1.0000003791
1.0000001123
1.0000000300
1.0000000071
1.0000000015
1.0000000003
1.0000000000
1.0000000000
1.0000000000
1.0000000000
1.0000000000
1.0000000000
1.0000000000
1.0000000000
1.0000000000
1.4992119810
1.4987811768
1.4984641699
1.4978273781
1.4968691448
1.4955948135
1.4940224042
1.4921858380
1.4901344635
1.4879298062
1.4856404356
1.4833362531
1.4810840076
1.4789440171
1.4769683303
1.4752005265
1.4736760417
1.4724230850
1.4714637970
1.4708147471
1.4704872697
1.4734895128
1.0047028295
1.0059154386
1.0057298838
1.0053723808
1.0048694980
1.0042587973
1.0035855299
1.0028979499
1.0022417217
1.0016544120
1.0011611049
1.0007724431
1.0004855800
1.0002875389
1.0001598851
1.0000832169
1.0000404069
1.0000182388
1.0000076243
1.0000029394
1.0000010403
1.0000003363
1.0000000987
1.0000000261
1.0000000062
1.0000000013
1.0000000002
1.0000000000
1.0000000000
1.0000000000
1.0000000000
1.0000000000
1.0000000000
1.0000000000
1.0000000000
1.4986040563
1.4979613720
1.4975566565
1.4967586073
1.4955901802
1.4940857201
1.4922904828
1.4902593369
1.4880541980
1.4857410158
1.4833863233
1.4810537785
1.4788018404
1.4766821310
1.4747386797
1.4730082931
1.4715210671
1.4703012987
1.4693685070
1.4687377057
1.4684194801
1.4712800144
1.0073108367
1.0089036480
1.0086638860
1.0081975779
1.0075315557
1.0067057328
1.0057713067
1.0047871628
1.0038143729
1.0029093785
1.0021168261
1.0014641446
1.0009595493
1.0005939570
1.0003461742
1.0001893848
1.0000969443
1.0000462781
1.0000205296
1.0000084312
1.0000031922
1.0000011092
1.0000003519
1.0000001014
1.0000000263
1.0000000061
1.0000000013
1.0000000002
1.0000000000
1.0000000000
1.0000000000
1.0000000000
1.0000000000
1.0000000000
1.0000000000
1.4975606853
1.4966024054
1.4960854198
1.4950809194
1.4936433148
1.4918440281
1.4897631671
1.4874824604
1.4850800100
1.4826275705
1.4801892186
1.4778207428
1.4755700482
1.4734775954
1.4715770307
1.4698963087
1.4684584798
1.4672826458
1.4663848501
1.4657780821
1.4654720098
1.4681412469
1.0114728956
1.0135645815
1.0132559180
1.0126495634
1.0117695296
1.0106545639
1.0093588893
1.0079510075
1.0065096325
1.0051164329
1.0038457929
1.0027542428
1.0018729075
1.0012054014
1.0007320316
1.0004182569
1.0002241762
1.0001123674
1.0000525063
1.0000227934
1.0000091583
1.0000033922
1.0000011531
1.0000003579
1.0000001008
1.0000000256
1.0000000058
1.0000000012
1.0000000002
1.0000000000
1.0000000000
1.0000000000
1.0000000000
1.0000000000
1.0000000000
1.4959514454
1.4945828464
1.4939484224
1.4927276037
1.4910072625
1.4888974107
1.4865148407
1.4839699569
1.4813584929
1.4787588756
1.4762329790
1.4738284576
1.4715820369
1.4695221735
1.4676711985
1.4660472954
1.4646656464
1.4635395173
1.4626810815
1.4621011709
1.4618086057
1.4642554484
1.0173214994
1.0199365656
1.0195599005
1.0188122671
1.0177094037
1.0162815393
1.0145773931
1.0126668366
1.0106405778
1.0086051429
1.0066713575
1.0049382854
1.0034772855
1.0023215028
1.0014651021
1.0008716549
1.0004875613
1.0002556962
1.0001253676
1.0000572885
1.0000243173
1.0000095536
1.0000034601
1.0000011501
1.0000003491
1.0000000962
1.0000000239
1.0000000053
1.0000000010
1.0000000002
1.0000000000
1.0000000000
1.0000000000
1.0000000000
1.0000000000
1.4936431496
1.4917876363
1.4910505875
1.4896398622
1.4876696345
1.4852831883
1.4826299763
1.4798469392
1.4770469733
1.4743157728
1.4717140500
1.4692823875
1.4670471931
1.4650255041
1.4632286555
1.4616651710
1.4603423546
1.4592676202
1.4584493608
1.4578965036
1.4576173943
1.4598264663
1.0248017606
1.0278480210
1.0274226779
1.0265689946
1.0252882124
1.0235929072
1.0215138913
1.0191072517
1.0164600354
1.0136916319
1.0109458408
1.0083724900
1.0061023509
1.0042231325
1.0027666287
1.0017112329
1.0009968980
1.0005456568
1.0002799125
1.0001342044
1.0000599589
1.0000248819
1.0000095567
1.0000033839
1.0000010998
1.0000003265
1.0000000880
1.0000000214
1.0000000047
1.0000000009
1.0000000002
1.0000000000
1.0000000000
1.0000000000
1.0000000000
1.4905247818
1.4881324091
1.4873243958
1.4857809140
1.4836332427
1.4810469069
1.4781949836
1.4752353858
1.4722960741
1.4694704349
1.4668197890
1.4643798176
1.4621686212
1.4601934318
1.4584557747
1.4569553407
1.4556921373
1.4546682089
1.4538886943
1.4533612712
1.4530945413
1.4550600583
1.0335854771
1.0368661721
1.0364269873
1.0355342035
1.0341700592
1.0323225170
1.0299931673
1.0272070088
1.0240243273
1.0205519599
1.0169459771
1.0133993025
1.0101127549
1.0072557928
1.0049329582
1.0031695990
1.0019204888
1.0010950260
1.0005863016
1.0002940917
1.0001378400
1.0000601951
1.0000244151
1.0000091653
1.0000031722
1.0000010079
1.0000002926
1.0000000771
1.0000000184
1.0000000039
1.0000000007
1.0000000001
1.0000000000
1.0000000000
1.0000000000
1.4865265056
1.4835787464
1.4827424146
1.4811438205
1.4789184188
1.4762394745
1.4732911923
1.4702441860
1.4672378487
1.4643732904
1.4617145961
1.4592954420
1.4571283675
1.4552130153
1.4535427467
1.4521096141
1.4509072426
1.4499331228
1.4491900262
1.4486854410
1.4484293737
1.4501481780
1.0430974483
1.0463640465
1.0459525864
1.0451022362
1.0437750802
1.0419332168
1.0395447497
1.0365924159
1.0330882675
1.0290942556
1.0247405255
1.0202302804
1.0158206560
1.0117764420
1.0083122679
1.0055476959
1.0034935864
1.0020722055
1.0011557613
1.0006050102
1.0002966024
1.0001358444
1.0000579629
1.0000229693
1.0000084248
1.0000028493
1.0000008847
1.0000002510
1.0000000647
1.0000000151
1.0000000031
1.0000000006
1.0000000001
1.0000000000
1.0000000000
1.4816295344
1.4781389927
1.4773212141
1.4757537989
1.4735634010
1.4709157736
1.4679922408
1.4649659972
1.4619826514
1.4591501323
1.4565371766
1.4541785018
1.4520841163
1.4502485317
1.4486587563
1.4473005294
1.4461621629
1.4452376287
1.4445285291
1.4440436483
1.4437960542
1.4452623066
1.0526553983
1.0556780902
1.0553323695
1.0545991034
1.0534216552
1.0517410285
1.0494973022
1.0466325316
1.0431021628
1.0388988229
1.0340839616
1.0288165425
1.0233610856
1.0180558636
1.0132428744
1.0091855726
1.0060117015
1.0037066636
1.0021504478
1.0011723445
1.0005995867
1.0002871204
1.0001284282
1.0000535129
1.0000207088
1.0000074180
1.0000024503
1.0000007432
1.0000002060
1.0000000519
1.0000000118
1.0000000024
1.0000000004
1.0000000001
1.0000000000
1.4758658127
1.4718715291
1.4711175543
1.4696658632
1.4676234943
1.4651351280
1.4623656344
1.4594798096
1.4566226793
1.4539065010
1.4514054184
1.4491576410
1.4471734582
1.4454446799
1.4439538174
1.4426817127
1.4416125800
1.4407381285
1.4400603172
1.4395911967
1.4393491972
1.4405525340
1.0616497913
1.0642688204
1.0640173342
1.0634549835
1.0625075691
1.0611024691
1.0591640394
1.0566075988
1.0533419978
1.0492877933
1.0444119997
1.0387751404
1.0325747952
1.0261540499
1.0199511637
1.0143961651
1.0097977889
1.0062792636
1.0037861910
1.0021462407
1.0011426143
1.0005705102
1.0002666586
1.0001164071
1.0000473372
1.0000178784
1.0000062505
1.0000020154
1.0000005969
1.0000001616
1.0000000398
1.0000000088
1.0000000018
1.0000000004
1.0000000001
1.4693087243
1.4648690396
1.4642187537
1.4629587177
1.4611689002
1.4589626064
1.4564766344
1.4538565404
1.4512385944
1.4487348142
1.4464235379
1.4443475283
1.4425194382
1.4409305912
1.4395609596
1.4383881635
1.4373938610
1.4365691068
1.4359181530
1.4354588699
1.4352181887
1.4361460230
1.0696668025
1.0718040188
1.0716666873
1.0713079005
1.0706337024
1.0695636327
1.0680193894
1.0659088171
1.0631172431
1.0595136426
1.0549761876
1.0494415486
1.0429737903
1.0358237640
1.0284354427
1.0213662023
1.0151370272
1.0100893058
1.0063216357
1.0037224438
1.0020593006
1.0010695586
1.0005208765
1.0002374291
1.0001010772
1.0000400835
1.0000147637
1.0000050344
1.0000015836
1.0000004576
1.0000001209
1.0000000291
1.0000000063
1.0000000014
1.0000000005
1.4620610203
1.4572464908
1.4567330875
1.4557293261
1.4542841216
1.4524728217
1.4503952631
1.4481678234
1.4459088546
1.4437233305
1.4416900532
1.4398553929
1.4382353248
1.4368226248
1.4355969936
1.4345350950
1.4336182041
1.4328388792
1.4322061042
1.4317467876
1.4315005751
1.4321440153
1.0765027510
1.0781420041
1.0781361515
1.0780023205
1.0776195293
1.0769010247
1.0757748809
1.0741580304
1.0719372933
1.0689624229
1.0650552212
1.0600443719
1.0538360452
1.0465084447
1.0383892021
1.0300511086
1.0221845026
1.0153934898
1.0100270575
1.0061311611
1.0035203689
1.0018982449
1.0009607507
1.0004558876
1.0002024703
1.0000839795
1.0000324477
1.0000116457
1.0000038701
1.0000011865
1.0000003343
1.0000000862
1.0000000203
1.0000000051
1.0000000018
1.4542433750
1.4491314153
1.4487820359
1.4480886359
1.4470678573
1.4457537142
1.4442028491
1.4424937424
1.4407170832
1.4389619705
1.4373013532
1.4357820696
1.4344231630
1.4332206594
1.4321568896
1.4312107991
1.4303663835
1.4296205464
1.4289899236
1.4285143217
1.4282516444
1.4286133025
1.0821029737
1.0832624315
1.0834101935
1.0835241083
1.0834436415
1.0830731375
1.0823508294
1.0812125341
1.0795648286
1.0772681311
1.0741296053
1.0699151960
1.0643998006
1.0574644750
1.0492233350
1.0401161831
1.0308736610
1.0223242092
1.0151305769
1.0096094489
1.0057231469
1.0031992656
1.0016791701
1.0008271679
1.0003820149
1.0001651260
1.0000666595
1.0000250697
1.0000087588
1.0000028338
1.0000008461
1.0000002323
1.0000000588
1.0000000161
1.0000000061
1.4459852026
1.4406570558
1.4404945354
1.4401578497
1.4396317806
1.4389076846
1.4379946576
1.4369255797
1.4357534328
1.4345410920
1.4333472596
1.4322143368
1.4311633559
1.4301956398
1.4293000547
1.4284623133
1.4276732760
1.4269376237
1.4262827917
1.4257657737
1.4254698800
1.4255708444
1.0864881431
1.0872010947
1.0875360569
1.0879319357
1.0881715325
1.0881452975
1.0878017173
1.0870989529
1.0859723658
1.0843122629
1.0819457360
1.0786273094
1.0740586500
1.0679596166
1.0602021204
1.0509742951
1.0408729192
1.0308135508
1.0217502753
1.0143571170
1.0088689385
1.0051349850
1.0027900719
1.0014233658
1.0006815559
1.0003059736
1.0001285647
1.0000504554
1.0000184486
1.0000062673
1.0000019721
1.0000005731
1.0000001546
1.0000000457
1.0000000186
1.4374213904
1.4319611621
1.4320059256
1.4320676789
1.4321001868
1.4320514825
1.4318794780
1.4315641849
1.4311106855
1.4305445295
1.4299007854
1.4292118401
1.4284997003
1.4277738629
1.4270348971
1.4262809843
1.4255147675
1.4247522747
1.4240345383
1.4234399843
1.4230864042
1.4229694779
1.0897023293
1.0900095328
1.0905826659
1.0913124624
1.0919044399
1.0922300170
1.0922467078
1.0919347342
1.0912601380
1.0901511418
1.0884752261
1.0860153549
1.0824614008
1.0774421532
1.0706286954
1.0619171625
1.0516245825
1.0405578098
1.0298311133
1.0204818333
1.0131280524
1.0078693738
1.0044207306
1.0023308180
1.0011540686
1.0005363975
1.0002337572
1.0000953537
1.0000363313
1.0000128983
1.0000042554
1.0000013015
1.0000003719
1.0000001178
1.0000000511
1.4286921950
1.4231868760
1.4234582155
1.4239574895
1.4246076713
1.4253121678
1.4259736037
1.4265116529
1.4268733679
1.4270361775
1.4270027195
1.4267907182
1.4264233755
1.4259225922
1.4253069716
1.4245935560
1.4238017199
1.4229617142
1.4221297176
1.4214090198
1.4209632996
1.4206903497
1.0917890803
1.0917370319
1.0926235877
1.0937613138
1.0947561775
1.0954573860
1.0958306275
1.0958765493
1.0955900377
1.0949376477
1.0938349416
1.0921161674
1.0895059949
1.0856145483
1.0799924657
1.0722836648
1.0624630401
1.0510510172
1.0391147879
1.0279485216
1.0185975287
1.0115415752
1.0066978819
1.0036437283
1.0018611514
1.0008929768
1.0004022493
1.0001699132
1.0000671855
1.0000248153
1.0000085419
1.0000027351
1.0000008228
1.0000002775
1.0000001269
1.4199432760
1.4144825155
1.4149987886
1.4159720026
1.4172931781
1.4188181954
1.4203889943
1.4218569505
1.4231015805
1.4240431236
1.4246454521
1.4249096001
1.4248623911
1.4245437667
1.4239971702
1.4232645186
1.4223857780
1.4214065563
1.4203973998
1.4194880063
1.4189021762
1.4185454517
1.0927794152
1.0924180790
1.0937282247
1.0953751056
1.0968451253
1.0979658533
1.0987109856
1.0990996721
1.0991527063
1.0988719572
1.0982208298
1.0970935471
1.0952767352
1.0924172893
1.0880295365
1.0815919248
1.0727647542
1.0616855076
1.0491651128
1.0365541870
1.0252628046
1.0162353379
1.0097288511
1.0054539950
1.0028680014
1.0014167182
1.0006575695
1.0002866048
1.0001171471
1.0000448243
1.0000160239
1.0000053446
1.0000016835
1.0000006001
1.0000002877
1.4113264611
1.4060011086
1.4067786870
1.4082572493
1.4102928914
1.4126890401
1.4152200970
1.4176611079
1.4198163313
1.4215431860
1.4227646552
1.4234668325
1.4236849797
1.4234833731
1.4229362701
1.4221146961
1.4210807915
1.4198939495
1.4186348711
1.4174577515
1.4166638246
1.4162938104
1.0926656387
1.0920427325
1.0939402410
1.0962342878
1.0982821419
1.0998949888
1.1010534383
1.1017925099
1.1021563809
1.1021791543
1.1018689288
1.1011802753
1.0999733225
1.0979656981
1.0947021473
1.0895912191
1.0820645580
1.0718776087
1.0594442401
1.0459411944
1.0329749732
1.0219499593
1.0135796093
1.0078377133
1.0042358753
1.0021490822
1.0010247880
1.0004593184
1.0001933433
1.0000763249
1.0000282102
1.0000097543
1.0000032004
1.0000011974
1.0000005980
1.4029968383
1.3978956752
1.3989468404
1.4009528813
1.4037301754
1.4070229728
1.4105305248
1.4139447136
1.4169902773
1.4194612550
1.4212428371
1.4223117185
1.4227178591
1.4225553024
1.4219326752
1.4209512842
1.4196939077
1.4182288452
1.4166382290
1.4150927772
1.4139902947
1.4136643076
1.0913407341
1.0904930037
1.0932308028
1.0963680245
1.0991490698
1.1013764223
1.1030312753
1.1041599831
1.1048294711
1.1051060977
1.1050410922
1.1046472448
1.1038605604
1.1024858409
1.1001417841
1.0962470128
1.0901086490
1.0811733059
1.0694155879
1.0556512991
1.0414550931
1.0285812360
1.0182538282
1.0108399853
1.0060126739
1.0031265419
1.0015275180
1.0007017995
1.0003031322
1.0001229730
1.0000467922
1.0000166954
1.0000056765
1.0000022150
1.0000011461
1.3951052382
1.3903100333
1.3916403023
1.3941814956
1.3977041277
1.4018857032
1.4063434570
1.4106823275
1.4145484157
1.4176777684
1.4199258045
1.4212678171
1.4217743259
1.4215719759
1.4208036530
1.4195983855
1.4180546964
1.4162414383
1.4142277746
1.4121822180
1.4106141047
1.4103697193
1.0884763500
1.0874202153
1.0914160210
1.0957034548
1.0994792530
1.1025365231
1.1048394808
1.1064408084
1.1074358606
1.1079312315
1.1080260517
1.1077918232
1.1072396587
1.1062668095
1.1045892618
1.1016913143
1.0968489699
1.0893053211
1.0786390146
1.0652063056
1.0503296516
1.0359206176
1.0236783496
1.0144606796
1.0082228813
1.0043742878
1.0021842032
1.0010255631
1.0004529983
1.0001881339
1.0000733940
1.0000269011
1.0000094310
1.0000038143
1.0000020339
1.3877893912
1.3833689561
1.3849744571
1.3880392099
1.3922813423
1.3973047570
1.4026404992
1.4078076214
1.4123805005
1.4160480479
1.4186471704
1.4201600338
1.4206813377
1.4203695355
1.4193977829
1.4179168135
1.4160330061
1.4138039366
1.4112639975
1.4085412473
1.4062476935
1.4061031183
1.0832757785
1.0820004190
1.0880246855
1.0940232307
1.0992787775
1.1035446359
1.1067444633
1.1089470225
1.1103012406
1.1109784329
1.1111419752
1.1109290941
1.1104262423
1.1096224572
1.1083395661
1.1061595450
1.1023964851
1.0961937153
1.0868268069
1.0741864962
1.0591866901
1.0436740207
1.0296984533
1.0186430895
1.0108577138
1.0058995072
1.0030039601
1.0014374642
1.0006472031
1.0002741769
1.0001092266
1.0000409491
1.0000147303
1.0000061381
1.0000033562
1.3811630405
1.3771673573
1.3790330379
1.3825875833
1.3874911538
1.3932696629
1.3993681422
1.4052264366
1.4103594705
1.4144233073
1.4172482568
1.4188298812
1.4192877077
1.4188082762
1.4175888768
1.4157945792
1.4135304552
1.4108279622
1.4076546385
1.4040233680
1.4005569097
1.4005181477
1.0738886074
1.0723521988
1.0821171850
1.0910424198
1.0987035022
1.1047828383
1.1092058335
1.1121349826
1.1138443949
1.1146213932
1.1147239692
1.1143685778
1.1137185096
1.1128499229
1.1116881528
1.1099251448
1.1069554193
1.1019052978
1.0938530483
1.0822850549
1.0676377701
1.0514985452
1.0360866543
1.0232687613
1.0138672504
1.0076851257
1.0039824806
1.0019372408
1.0008863932
1.0003817257
1.0001547064
1.0000590773
1.0000217018
1.0000092639
1.0000051696
1.3753072246
1.3717629723
1.3738624157
1.3778512116
1.3833282189
1.3897407420
1.3964528136
1.4028363376
1.4083617579
1.4126664557
1.4155834934
1.4171247623
1.4174323898
1.4167166232
1.4151953459
1.4130469353
1.4103755622
1.4071811853
1.4033298700
1.3985827221
1.3932112397
1.3932859873
1.0555080831
1.0536254612
1.0721952820
1.0869840677
1.0986505441
1.1072524572
1.1130973564
1.1166933278
1.1185838278
1.1192465632
1.1190673218
1.1183513064
1.1173341928
1.1161671831
1.1148662042
1.1132288564
1.1107478614
1.1065872367
1.0997211661
1.0893248401
1.0753670075
1.0590479791
1.0425651787
1.0281612839
1.0171566639
1.0096851872
1.0050986436
1.0025154272
1.0011664178
1.0005090219
1.0002091277
1.0000810226
1.0000302555
1.0000131586
1.0000074605
1.3702683415
1.3671767861
1.3694742421
1.3738247017
1.3797655385
1.3866689481
1.3938267707
1.4005559365
1.4062956510
1.4106734470
1.4135264622
1.4148763738
1.4148758047
1.4137453876
1.4117152404
1.4089834701
1.4056914008
1.4019031095
1.3975600733
1.3923443776
1.3855030412
1.3857261085
1.0126954949
1.0102548689
1.0572126617
1.0846773339
1.1021960995
1.1132983538
1.1199627067
1.1235441232
1.1250222239
1.1250989580
1.1242742917
1.1229146178
1.1212976445
1.1196197431
1.1179604291
1.1162035559
1.1139374116
1.1103915244
1.1045049428
1.0952377201
1.0821527614
1.0660128321
1.0488365012
1.0330991789
1.0205879752
1.0118229098
1.0063124223
1.0031519765
1.0014775705
1.0006515417
1.0002704754
1.0001059307
1.0000400389
1.0000176520
1.0000101254
1.3660608024
1.3633985350
1.3658534792
1.3704855861
1.3767742197
1.3840239041
1.3914655170
1.3983732339
1.4041635335
1.4084541624
1.4110742688
1.4120276724
1.4114284246
1.4094244798
1.4061144740
1.4014587911
1.3951620282
1.3864627590
1.3736852635
1.3531513183
1.3162550619
1.2421790618
1.1479370972
1.1561208051
1.0915138311
1.0966547129
1.1094217681
1.1187109380
1.1256105629
1.1302194614
1.1327612152
1.1336093504
1.1331788920
1.1318454263
1.1299194279
1.1276590944
1.1252862770
1.1229817078
1.1208470528
1.1188235314
1.1165803537
1.1134213081
1.1082952076
1.1000297672
1.0878678210
1.0721496885
1.0546178958
1.0378385215
1.0239898294
1.0139935238
1.0075653389
1.0038162418
1.0018045822
1.0008020306
1.0003354659
1.0001323842
1.0000504530
1.0000224461
1.0000129767
1.3626723554
1.3603946425
1.3629676745
1.3678060609
1.3743385903
1.3818136601
1.3894154157
1.3963892680
1.4021397692
1.4062813297
1.4086387341
1.4092030894
1.4080641766
1.4053341726
1.4010655882
1.3951679783
1.3873109091
1.3767746030
1.3621834733
1.3409651482
1.3081736152
1.2549028608
1.1448337306
1.1535049571
1.1211054172
1.1193445667
1.1250811596
1.1309415649
1.1356247500
1.1386605868
1.1400375280
1.1399792672
1.1387988585
1.1368083308
1.1342818784
1.1314597632
1.1285599905
1.1257748319
1.1232382934
1.1209486612
1.1186531191
1.1157354232
1.1111837148
1.1037585808
1.0924715323
1.0772988711
1.0596738448
1.0421420258
1.0271753997
1.0160730777
1.0087844371
1.0044688476
1.0021275977
1.0009510472
1.0003998474
1.0001585618
1.0000607340
1.0000271627
1.0000157757
1.3600668260
1.3581123731
1.3607690093
1.3657499697
1.3724435405
1.3800555021
1.3877377537
1.3947196326
1.4004030609
1.4044054852
1.4065530580
1.4068326652
1.4053249871
1.4021327196
1.3973051705
1.3907665196
1.3822419950
1.3711570711
1.3564832569
1.3364687459
1.3081422633
1.2670537250
1.1927398532
1.1777618164
1.1509925776
1.1421045015
1.1409810114
1.1423920909
1.1442010761
1.1453835194
1.1455559128
1.1446877392
1.1429226533
1.1404670237
1.1375337632
1.1343308197
1.1310634523
1.1279279050
1.1250811143
1.1225661146
1.1201949326
1.1174238607
1.1132906188
1.1065306747
1.0959999381
1.0813879566
1.0638369986
1.0458058993
1.0299638513
1.0179316692
1.0098894224
1.0050653686
1.0024240688
1.0010879406
1.0004588990
1.0001824853
1.0000700748
1.0000314147
1.0000182831
1.3581894002
1.3564852955
1.3591972803
1.3642704781
1.3710636225
1.3787529988
1.3864704861
1.3934383582
1.3990612285
1.4029625333
1.4049724517
1.4050779162
1.4033574445
1.3999139312
1.3948051030
1.3879803323
1.3792215037
1.3680693188
1.3537252619
1.3349019222
1.3095782708
1.2749617439
1.2199315367
1.1954874688
1.1709665530
1.1583934325
1.1530642654
1.1512706260
1.1508274771
1.1504933617
1.1496658080
1.1481337149
1.1459068568
1.1431016379
1.1398753431
1.1364041359
1.1328779865
1.1294916717
1.1264157935
1.1237244974
1.1212779343
1.1185898377
1.1147438895
1.1084725634
1.0985341006
1.0844110675
1.0670074440
1.0486742633
1.0321983363
1.0194475740
1.0108015097
1.0055612146
1.0026712583
1.0012020740
1.0005080061
1.0002022828
1.0000777459
1.0000348711
1.0000203037
1.3569802675
1.3554463113
1.3581913075
1.3633184150
1.3701674014
1.3778964871
1.3856265721
1.3925778465
1.3981590218
1.4019992367
1.4039325806
1.4039471191
1.4021212964
1.3985599987
1.3933288395
1.3863959614
1.3775806276
1.3664928142
1.3524615158
1.3344391214
1.3108685951
1.2797311068
1.2348253015
1.2068256473
1.1829997243
1.1685300158
1.1608466322
1.1570950346
1.1552029054
1.1538627548
1.1523619573
1.1503824825
1.1478478929
1.1448137109
1.1413983748
1.1377552217
1.1340626082
1.1305130091
1.1272848334
1.1244718361
1.1219657561
1.1193195858
1.1156512236
1.1096982606
1.1001632819
1.0863965226
1.0691358051
1.0506399266
1.0337567789
1.0205191856
1.0114522075
1.0059168408
1.0028489251
1.0012840713
1.0005431931
1.0002164006
1.0000831755
1.0000372927
1.0000217067
1.3563899345
1.3549419156
1.3577021647
1.3628538211
1.3697274648
1.3774728497
1.3852061686
1.3921473939
1.3977079765
1.4015203864
1.4034209734
1.4033985932
1.4015318801
1.3979269620
1.3926535723
1.3856890541
1.3768701314
1.3658377880
1.3519760337
1.3343380871
1.3115605646
1.2819522221
1.2414000221
1.2122730810
1.1886199173
1.1733386479
1.1646062703
1.1599412516
1.1573532208
1.1555210667
1.1536879652
1.1514874281
1.1488015983
1.1456557503
1.1421486577
1.1384219703
1.1346479997
1.1310178311
1.1277135024
1.1248382954
1.1222995934
1.1196702468