<VTKFile type="UnstructuredGrid" version="0.1">
	<UnstructuredGrid>
		<Piece NumberOfPoints="13548" NumberOfCells="3387">
			<CellData>
				<DataArray type="Int32" Name="ghost" NumberOfComponents="1" Format="ascii">
1
1
1
1
1
1
1
1
1
1
1
1
1
1
1
1
1
1
1
1
1
1
1
1
1
1
1
1
1
1
1
1
1
1
1
1
1
1
1
1
1
1
1
1
1
1
1
1
1
1
1
1
1
1
1
1
1
1
0
0
0
0
0
0
0
0
0
0
0
0
0
0
0
0
0
0
0
0
1
1
0
0
0
0
0
0
0
0
0
0
0
0
0
0
0
0
0
0
0
0
0
0
0
0
0
0
0
0
0
0
0
0
0
1
1
0
0
0
0
0
0
0
0
0
0
0
0
0
0
0
0
0
0
0
0
1
1
0
0
0
0
0
0
0
0
0
0
0
0
0
0
0
0
0
0
0
0
0
0
0
0
0
0
0
0
0
0
0
0
0
1
1
0
0
0
0
0
0
0
0
0
0
0
0
0
0
0
0
0
0
0
0
1
1
0
0
0
0
0
0
0
0
0
0
0
0
0
0
0
0
0
0
0
0
0
0
0
0
0
0
0
0
0
0
0
0
0
1
1
0
0
0
0
0
0
0
0
0
0
0
0
0
0
0
0
0
0
0
0
1
1
0
0
0
0
0
0
0
0
0
0
0
0
0
0
0
0
0
0
0
0
0
0
0
0
0
0
0
0
0
0
0
0
0
1
1
0
0
0
0
0
0
0
0
0
0
0
0
0
0
0
0
0
0
0
0
1
1
0
0
0
0
0
0
0
0
0
0
0
0
0
0
0
0
0
0
0
0
0
0
0
0
0
0
0
0
0
0
0
0
0
1
1
0
0
0
0
0
0
0
0
0
0
0
0
0
0
0
0
0
0
0
0
1
1
0
0
0
0
0
0
0
0
0
0
0
0
0
0
0
0
0
0
0
0
0
0
0
0
0
0
0
0
0
0
0
0
0
1
1
0
0
0
0
0
0
0
0
0
0
0
0
0
0
0
0
0
0
0
0
1
1
0
0
0
0
0
0
0
0
0
0
0
0
0
0
0
0
0
0
0
0
0
0
0
0
0
0
0
0
0
0
0
0
0
1
1
0
0
0
0
0
0
0
0
0
0
0
0
0
0
0
0
0
0
0
0
1
1
0
0
0
0
0
0
0
0
0
0
0
0
0
0
0
0
0
0
0
0
0
0
0
0
0
0
0
0
0
0
0
0
0
1
1
0
0
0
0
0
0
0
0
0
0
0
0
0
0
0
0
0
0
0
0
1
1
0
0
0
0
0
0
0
0
0
0
0
0
0
0
0
0
0
0
0
0
0
0
0
0
0
0
0
0
0
0
0
0
0
1
1
0
0
0
0
0
0
0
0
0
0
0
0
0
0
0
0
0
0
0
0
1
1
0
0
0
0
0
0
0
0
0
0
0
0
0
0
0
0
0
0
0
0
0
0
0
0
0
0
0
0
0
0
0
0
0
1
1
0
0
0
0
0
0
0
0
0
0
0
0
0
0
0
0
0
0
0
0
1
1
0
0
0
0
0
0
0
0
0
0
0
0
0
0
0
0
0
0
0
0
0
0
0
0
0
0
0
0
0
0
0
0
0
1
1
0
0
0
0
0
0
0
0
0
0
0
0
0
0
0
0
0
0
0
0
1
1
0
0
0
0
0
0
0
0
0
0
0
0
0
0
0
0
0
0
0
0
0
0
0
0
0
0
0
0
0
0
0
0
0
1
1
0
0
0
0
0
0
0
0
0
0
0
0
0
0
0
0
0
0
0
0
1
1
0
0
0
0
0
0
0
0
0
0
0
0
0
0
0
0
0
0
0
0
0
0
0
0
0
0
0
0
0
0
0
0
0
1
1
0
0
0
0
0
0
0
0
0
0
0
0
0
0
0
0
0
0
0
0
1
1
0
0
0
0
0
0
0
0
0
0
0
0
0
0
0
0
0
0
0
0
0
0
0
0
0
0
0
0
0
0
0
0
0
1
1
0
0
0
0
0
0
0
0
0
0
0
0
0
0
0
0
0
0
0
0
1
1
0
0
0
0
0
0
0
0
0
0
0
0
0
0
0
0
0
0
0
0
0
0
0
0
0
0
0
0
0
0
0
0
0
1
1
0
0
0
0
0
0
0
0
0
0
0
0
0
0
0
0
0
0
0
0
1
1
0
0
0
0
0
0
0
0
0
0
0
0
0
0
0
0
0
0
0
0
0
0
0
0
0
0
0
0
0
0
0
0
0
1
1
0
0
0
0
0
0
0
0
0
0
0
0
0
0
0
0
0
0
0
0
1
1
0
0
0
0
0
0
0
0
0
0
0
0
0
0
0
0
0
0
0
0
0
0
0
0
0
0
0
0
0
0
0
0
0
1
1
0
0
0
0
0
0
0
0
0
0
0
0
0
0
0
0
0
0
0
0
1
1
0
0
0
0
0
0
0
0
0
0
0
0
0
0
0
0
0
0
0
0
0
0
0
0
0
0
0
0
0
0
0
0
0
1
1
0
0
0
0
0
0
0
0
0
0
0
0
0
0
0
0
0
0
0
0
1
1
0
0
0
0
0
0
0
0
0
0
0
0
0
0
0
0
0
0
0
0
0
0
0
0
0
0
0
0
0
0
0
0
0
1
1
0
0
0
0
0
0
0
0
0
0
0
0
0
0
0
0
0
0
0
0
1
1
0
0
0
0
0
0
0
0
0
0
0
0
0
0
0
0
0
0
0
0
0
0
0
0
0
0
0
0
0
0
0
0
0
1
1
0
0
0
0
0
0
0
0
0
0
0
0
0
0
0
0
0
0
0
0
1
1
0
0
0
0
0
0
0
0
0
0
0
0
0
0
0
0
0
0
0
0
0
0
0
0
0
0
0
0
0
0
0
0
0
1
1
0
0
0
0
0
0
0
0
0
0
0
0
0
0
0
0
0
0
0
0
1
1
0
0
0
0
0
0
0
0
0
0
0
0
0
0
0
0
0
0
0
0
0
0
0
0
0
0
0
0
0
0
0
0
0
1
1
0
0
0
0
0
0
0
0
0
0
0
0
0
0
0
0
0
0
0
0
1
1
0
0
0
0
0
0
0
0
0
0
0
0
0
0
0
0
0
0
0
0
0
0
0
0
0
0
0
0
0
0
0
0
0
1
1
0
0
0
0
0
0
0
0
0
0
0
0
0
0
0
0
0
0
0
0
1
1
0
0
0
0
0
0
0
0
0
0
0
0
0
0
0
0
0
0
0
0
0
0
0
0
0
0
0
0
0
0
0
0
0
1
1
0
0
0
0
0
0
0
0
0
0
0
0
0
0
0
0
0
0
0
0
0
1
1
0
0
0
0
0
0
0
0
0
0
0
0
0
0
0
0
0
0
0
0
0
0
0
0
0
0
0
0
0
0
0
0
0
0
1
1
0
0
0
0
0
0
0
0
0
0
0
0
0
0
0
0
0
0
0
0
0
0
0
0
0
0
0
0
0
0
0
0
0
0
0
0
0
0
0
0
0
0
0
0
0
0
0
0
0
0
0
0
0
0
0
0
0
1
1
0
0
0
0
0
0
0
0
0
0
0
0
0
0
0
0
0
0
0
0
0
0
0
0
0
0
0
0
0
0
0
0
0
0
0
0
0
0
0
0
0
0
0
0
0
0
0
0
0
0
0
0
0
0
0
0
0
1
1
0
0
0
0
0
0
0
0
0
0
0
0
0
0
0
0
0
0
0
0
0
0
0
0
0
0
0
0
0
0
0
0
0
0
0
0
0
0
0
0
0
0
0
0
0
0
0
0
0
0
0
0
0
0
0
0
0
1
1
0
0
0
0
0
0
0
0
0
0
0
0
0
0
0
0
0
0
0
0
0
0
0
0
0
0
0
0
0
0
0
0
0
0
0
0
0
0
0
0
0
0
0
0
0
0
0
0
0
0
0
0
0
0
0
0
0
1
1
0
0
0
0
0
0
0
0
0
0
0
0
0
0
0
0
0
0
0
0
0
0
0
0
0
0
0
0
0
0
0
0
0
0
0
0
0
0
0
0
0
0
0
0
0
0
0
0
0
0
0
0
0
0
0
0
0
1
1
0
0
0
0
0
0
0
0
0
0
0
0
0
0
0
0
0
0
0
0
0
0
0
0
0
0
0
0
0
0
0
0
0
0
0
0
0
0
0
0
0
0
0
0
0
0
0
0
0
0
0
0
0
0
0
0
0
1
1
0
0
0
0
0
0
0
0
0
0
0
0
0
0
0
0
0
0
0
0
0
0
0
0
0
0
0
0
0
0
0
0
0
0
0
0
0
0
0
0
0
0
0
0
0
0
0
0
0
0
0
0
0
0
0
0
0
1
1
0
0
0
0
0
0
0
0
0
0
0
0
0
0
0
0
0
0
0
0
0
0
0
0
0
0
0
0
0
0
0
0
0
0
0
0
0
0
0
0
0
0
0
0
0
0
0
0
0
0
0
0
0
0
0
0
0
1
1
0
0
0
0
0
0
0
0
0
0
0
0
0
0
0
0
0
0
0
0
0
0
0
0
0
0
0
0
0
0
0
0
0
0
0
0
0
0
0
0
0
0
0
0
0
0
0
0
0
0
0
0
0
0
0
0
0
1
1
0
0
0
0
0
0
0
0
0
0
0
0
0
0
0
0
0
0
0
0
0
0
0
0
0
0
0
0
0
0
0
0
0
0
0
0
0
0
0
0
0
0
0
0
0
0
0
0
0
0
0
0
0
0
0
0
0
1
1
0
0
0
0
0
0
0
0
0
0
0
0
0
0
0
0
0
0
0
0
0
1
1
0
0
0
0
0
0
0
0
0
0
0
0
0
0
0
0
0
0
0
0
0
0
0
0
0
0
0
0
0
0
0
0
0
0
1
1
0
0
0
0
0
0
0
0
0
0
0
0
0
0
0
0
0
0
0
0
1
1
0
0
0
0
0
0
0
0
0
0
0
0
0
0
0
0
0
0
0
0
0
0
0
0
0
0
0
0
0
0
0
0
0
1
1
0
0
0
0
0
0
0
0
0
0
0
0
0
0
0
0
0
0
0
0
1
1
0
0
0
0
0
0
0
0
0
0
0
0
0
0
0
0
0
0
0
0
0
0
0
0
0
0
0
0
0
0
0
0
0
1
1
0
0
0
0
0
0
0
0
0
0
0
0
0
0
0
0
0
0
0
0
1
1
0
0
0
0
0
0
0
0
0
0
0
0
0
0
0
0
0
0
0
0
0
0
0
0
0
0
0
0
0
0
0
0
0
1
1
0
0
0
0
0
0
0
0
0
0
0
0
0
0
0
0
0
0
0
0
1
1
0
0
0
0
0
0
0
0
0
0
0
0
0
0
0
0
0
0
0
0
0
0
0
0
0
0
0
0
0
0
0
0
0
1
1
0
0
0
0
0
0
0
0
0
0
0
0
0
0
0
0
0
0
0
0
1
1
0
0
0
0
0
0
0
0
0
0
0
0
0
0
0
0
0
0
0
0
0
0
0
0
0
0
0
0
0
0
0
0
0
1
1
0
0
0
0
0
0
0
0
0
0
0
0
0
0
0
0
0
0
0
0
1
1
0
0
0
0
0
0
0
0
0
0
0
0
0
0
0
0
0
0
0
0
0
0
0
0
0
0
0
0
0
0
0
0
0
1
1
0
0
0
0
0
0
0
0
0
0
0
0
0
0
0
0
0
0
0
0
1
1
0
0
0
0
0
0
0
0
0
0
0
0
0
0
0
0
0
0
0
0
0
0
0
0
0
0
0
0
0
0
0
0
0
1
1
0
0
0
0
0
0
0
0
0
0
0
0
0
0
0
0
0
0
0
0
1
1
0
0
0
0
0
0
0
0
0
0
0
0
0
0
0
0
0
0
0
0
0
0
0
0
0
0
0
0
0
0
0
0
0
1
1
0
0
0
0
0
0
0
0
0
0
0
0
0
0
0
0
0
0
0
0
1
1
0
0
0
0
0
0
0
0
0
0
0
0
0
0
0
0
0
0
0
0
0
0
0
0
0
0
0
0
0
0
0
0
0
1
1
0
0
0
0
0
0
0
0
0
0
0
0
0
0
0
0
0
0
0
0
1
1
0
0
0
0
0
0
0
0
0
0
0
0
0
0
0
0
0
0
0
0
0
0
0
0
0
0
0
0
0
0
0
0
0
1
1
0
0
0
0
0
0
0
0
0
0
0
0
0
0
0
0
0
0
0
0
1
1
0
0
0
0
0
0
0
0
0
0
0
0
0
0
0
0
0
0
0
0
0
0
0
0
0
0
0
0
0
0
0
0
0
1
1
0
0
0
0
0
0
0
0
0
0
0
0
0
0
0
0
0
0
0
0
1
1
0
0
0
0
0
0
0
0
0
0
0
0
0
0
0
0
0
0
0
0
0
0
0
0
0
0
0
0
0
0
0
0
0
1
1
0
0
0
0
0
0
0
0
0
0
0
0
0
0
0
0
0
0
0
0
1
1
0
0
0
0
0
0
0
0
0
0
0
0
0
0
0
0
0
0
0
0
0
0
0
0
0
0
0
0
0
0
0
0
0
1
1
0
0
0
0
0
0
0
0
0
0
0
0
0
0
0
0
0
0
0
0
1
1
0
0
0
0
0
0
0
0
0
0
0
0
0
0
0
0
0
0
0
0
0
0
0
0
0
0
0
0
0
0
0
0
0
1
1
0
0
0
0
0
0
0
0
0
0
0
0
0
0
0
0
0
0
0
0
1
1
0
0
0
0
0
0
0
0
0
0
0
0
0
0
0
0
0
0
0
0
0
0
0
0
0
0
0
0
0
0
0
0
0
1
1
0
0
0
0
0
0
0
0
0
0
0
0
0
0
0
0
0
0
0
0
1
1
0
0
0
0
0
0
0
0
0
0
0
0
0
0
0
0
0
0
0
0
0
0
0
0
0
0
0
0
0
0
0
0
0
1
1
0
0
0
0
0
0
0
0
0
0
0
0
0
0
0
0
0
0
0
0
1
1
0
0
0
0
0
0
0
0
0
0
0
0
0
0
0
0
0
0
0
0
0
0
0
0
0
0
0
0
0
0
0
0
0
1
1
0
0
0
0
0
0
0
0
0
0
0
0
0
0
0
0
0
0
0
0
1
1
0
0
0
0
0
0
0
0
0
0
0
0
0
0
0
0
0
0
0
0
0
0
0
0
0
0
0
0
0
0
0
0
0
1
1
0
0
0
0
0
0
0
0
0
0
0
0
0
0
0
0
0
0
0
0
1
1
0
0
0
0
0
0
0
0
0
0
0
0
0
0
0
0
0
0
0
0
0
0
0
0
0
0
0
0
0
0
0
0
0
1
1
0
0
0
0
0
0
0
0
0
0
0
0
0
0
0
0
0
0
0
0
1
1
0
0
0
0
0
0
0
0
0
0
0
0
0
0
0
0
0
0
0
0
0
0
0
0
0
0
0
0
0
0
0
0
0
1
1
0
0
0
0
0
0
0
0
0
0
0
0
0
0
0
0
0
0
0
0
1
1
0
0
0
0
0
0
0
0
0
0
0
0
0
0
0
0
0
0
0
0
0
0
0
0
0
0
0
0
0
0
0
0
0
1
1
1
1
1
1
1
1
1
1
1
1
1
1
1
1
1
1
1
1
1
1
1
1
1
1
1
1
1
1
1
1
1
1
1
1
1
1
1
1
1
1
1
1
1
1
1
1
1
1
1
1
1
1
1
1
1
1
				</DataArray>
				<DataArray type="Float64" Name="h" NumberOfComponents="1" Format="ascii">
1.4841353154
1.4804530001
1.4795969220
1.4779433434
1.4756017776
1.4727175912
1.4694541129
1.4659746286
1.4624269915
1.4589344577
1.4555920023
1.4524673195
1.4496055380
1.4470345500
1.4447702858
1.4428214139
1.4411922912
1.4398853321
1.4389025621
1.4382457918
1.4379167893
1.4379167893
1.0259972463
1.0300190041
1.0295299125
1.0285622406
1.0271391051
1.0252986192
1.0230964694
1.0206075120
1.0179253590
1.0151594857
1.0124281592
1.0098476155
1.0075192484
1.0055170635
1.0038795273
1.0026081001
1.0016724180
1.0010206610
1.0005915665
1.0003249106
1.0001687281
1.0000826565
1.0000381044
1.0000164878
1.0000066785
1.0000025249
1.0000008881
1.0000002897
1.0000000873
1.0000000242
1.0000000061
1.0000000014
1.0000000003
1.0000000001
1.0000000001
1.4804530001
1.4763167686
1.4754945700
1.4739026059
1.4716400629
1.4688408267
1.4656586371
1.4622510378
1.4587643132
1.4553233218
1.4520261298
1.4489434414
1.4461223456
1.4435913508
1.4413658996
1.4394535148
1.4378571679
1.4365779735
1.4356169038
1.4349749975
1.4346535404
1.4379167893
1.0300190041
1.0343545580
1.0338397213
1.0328186011
1.0313106747
1.0293491680
1.0269843397
1.0242861172
1.0213450550
1.0182711361
1.0151882645
1.0122242862
1.0094977564
1.0071032952
1.0051000878
1.0035068001
1.0023039526
1.0014432247
1.0008602037
1.0004868317
1.0002610650
1.0001323657
1.0000633097
1.0000284965
1.0000120409
1.0000047632
1.0000017590
1.0000006045
1.0000001927
1.0000000567
1.0000000154
1.0000000038
1.0000000009
1.0000000002
1.0000000001
1.4788214342
1.4746653314
1.4738993473
1.4724129333
1.4702928961
1.4676576736
1.4646453927
1.4614004667
1.4580602226
1.4547451395
1.4515527607
1.4485557535
1.4458042200
1.4433296661
1.4411499677
1.4392743925
1.4377070963
1.4364500307
1.4355048291
1.4348730991
1.4345565923
1.4377422449
1.0326648850
1.0368888362
1.0363933880
1.0354080083
1.0339463074
1.0320328773
1.0297065957
1.0270236210
1.0240594409
1.0209098465
1.0176885533
1.0145205728
1.0115313891
1.0088323822
1.0065065016
1.0045982019
1.0031103599
1.0020096521
1.0012379320
1.0007256581
1.0004040251
1.0002132505
1.0001064840
1.0000501931
1.0000222833
1.0000092944
1.0000036326
1.0000013267
1.0000004513
1.0000001425
1.0000000416
1.0000000112
1.0000000028
1.0000000007
1.0000000003
1.4756456730
1.4714520936
1.4707915195
1.4695035568
1.4676526563
1.4653291282
1.4626422807
1.4597117582
1.4566573535
1.4535902482
1.4506059138
1.4477798831
1.4451674837
1.4428057700
1.4407173322
1.4389149480
1.4374052282
1.4361918883
1.4352779558
1.4346662301
1.4343594369
1.4373911876
1.0375650230
1.0415574225
1.0411004707
1.0401868736
1.0388203015
1.0370107816
1.0347777972
1.0321534405
1.0291856992
1.0259425456
1.0225146938
1.0190152974
1.0155748836
1.0123291922
1.0094019421
1.0068867113
1.0048331079
1.0032428692
1.0020764308
1.0012666088
1.0007347897
1.0004046899
1.0002112039
1.0001042367
1.0000485459
1.0000212860
1.0000087654
1.0000033811
1.0000012182
1.0000004087
1.0000001273
1.0000000367
1.0000000098
1.0000000029
1.0000000011
1.4710867999
1.4668432004
1.4663251278
1.4653066255
1.4638238321
1.4619309239
1.4596993290
1.4572149652
1.4545723547
1.4518677100
1.4491912091
1.4466203125
1.4442163276
1.4420235430
1.4400712113
1.4383773929
1.4369525815
1.4358033632
1.4349350461
1.4343523670
1.4340596290
1.4368644844
1.0440400198
1.0476793851
1.0472782251
1.0464700442
1.0452471334
1.0436031804
1.0415357585
1.0390488135
1.0361561157
1.0328875167
1.0292966528
1.0254683282
1.0215227199
1.0176107680
1.0138987547
1.0105437850
1.0076661830
1.0053297429
1.0035365028
1.0022361580
1.0013454257
1.0007691549
1.0004171287
1.0002142208
1.0001039838
1.0000476076
1.0000205125
1.0000082979
1.0000031435
1.0000011121
1.0000003663
1.0000001121
1.0000000321
1.0000000102
1.0000000040
1.4653544317
1.4610564418
1.4607038957
1.4600002426
1.4589517556
1.4575736833
1.4558952990
1.4539631643
1.4518401507
1.4496013330
1.4473266510
1.4450924310
1.4429648728
1.4409959874
1.4392231021
1.4376712799
1.4363565211
1.4352896564
1.4344794108
1.4339334142
1.4336583184
1.4361698454
1.0512981057
1.0544826226
1.0541503980
1.0534738288
1.0524345083
1.0510117168
1.0491840255
1.0469301513
1.0442308766
1.0410750641
1.0374696693
1.0334530977
1.0291097493
1.0245782533
1.0200466563
1.0157302350
1.0118337637
1.0085118313
1.0058421527
1.0038206280
1.0023778872
1.0014068951
1.0007903334
1.0004209371
1.0002122206
1.0001010943
1.0000454110
1.0000191939
1.0000076159
1.0000028297
1.0000009819
1.0000003176
1.0000000967
1.0000000331
1.0000000140
1.4586800520
1.4543344646
1.4541576343
1.4537905697
1.4532117284
1.4523990493
1.4513396687
1.4500384793
1.4485220965
1.4468384102
1.4450509872
1.4432300988
1.4414439033
1.4397512588
1.4381982679
1.4368185626
1.4356354649
1.4346657565
1.4339230615
1.4334191708
1.4331641162
1.4353270347
1.0586114406
1.0612792173
1.0610235656
1.0604938306
1.0596622479
1.0584973782
1.0569649185
1.0550263562
1.0526380104
1.0497543051
1.0463362539
1.0423661576
1.0378689877
1.0329343153
1.0277298339
1.0224952331
1.0175080238
1.0130293418
1.0092493094
1.0062534188
1.0040225674
1.0024599957
1.0014290732
1.0007878088
1.0004116178
1.0002035215
1.0000950615
1.0000418646
1.0000173467
1.0000067472
1.0000024578
1.0000008372
1.0000002701
1.0000000990
1.0000000443
1.4512946705
1.4469215643
1.4469213052
1.4468950215
1.4467974863
1.4465736831
1.4461715943
1.4455548166
1.4447110236
1.4436556978
1.4424295974
1.4410908893
1.4397053029
1.4383363932
1.4370389414
1.4358564478
1.4348215077
1.4339589041
1.4332890533
1.4328295807
1.4325952911
1.4343709041
1.0654329497
1.0675680942
1.0673919664
1.0670140696
1.0663977207
1.0655039619
1.0642919711
1.0627154616
1.0607184249
1.0582343554
1.0551902422
1.0515173748
1.0471725826
1.0421679233
1.0366025241
1.0306829228
1.0247122379
1.0190410095
1.0139915646
1.0097853979
1.0065067059
1.0041113987
1.0024676911
1.0014061359
1.0007600658
1.0003892788
1.0001886353
1.0000863407
1.0000372574
1.0000151257
1.0000057653
1.0000020613
1.0000007021
1.0000002742
1.0000001293
1.4434131857
1.4390465925
1.4392187404
1.4395275645
1.4399087237
1.4402794363
1.4405528099
1.4406531689
1.4405282640
1.4401572939
1.4395524212
1.4387535169
1.4378187716
1.4368133736
1.4357999494
1.4348328086
1.4339557875
1.4332039970
1.4326069439
1.4321902240
1.4319752690
1.4333466961
1.0714315199
1.0730554375
1.0729597108
1.0727329889
1.0723281887
1.0717001024
1.0708057915
1.0695988689
1.0680222695
1.0660036208
1.0634539271
1.0602713684
1.0563557581
1.0516361622
1.0461115808
1.0398960760
1.0332447938
1.0265369769
1.0202057651
1.0146342929
1.0100669697
1.0065741998
1.0040755064
1.0023982618
1.0013392720
1.0007092521
1.0003558160
1.0001688699
1.0000756941
1.0000319853
1.0000127183
1.0000047574
1.0000017049
1.0000007061
1.0000003495
1.4352296353
1.4309168326
1.4312559441
1.4318910996
1.4327425692
1.4337042614
1.4346584693
1.4354928009
1.4361153315
1.4364666737
1.4365260318
1.4363096572
1.4358632698
1.4352502823
1.4345397954
1.4337974383
1.4330800873
1.4324355987
1.4319051634
1.4315249317
1.4313253615
1.4323011991
1.0764586217
1.0776152375
1.0776018602
1.0775257787
1.0773257114
1.0769491772
1.0763529103
1.0754948818
1.0743245848
1.0727756231
1.0707601967
1.0681658747
1.0648602132
1.0607082127
1.0556084362
1.0495488482
1.0426659665
1.0352774436
1.0278535582
1.0209157583
1.0149024071
1.0100661502
1.0064465979
1.0039159486
1.0022569220
1.0012340139
1.0006397233
1.0003141292
1.0001459078
1.0000640038
1.0000264740
1.0000103297
1.0000038825
1.0000016972
1.0000008779
1.4269195213
1.4227192330
1.4232208779
1.4241746860
1.4254877012
1.4270332895
1.4286657509
1.4302381938
1.4316199901
1.4327124489
1.4334593938
1.4338498342
1.4339131231
1.4337077621
1.4333076696
1.4327897997
1.4322254328
1.4316773740
1.4312011475
1.4308463902
1.4306555886
1.4312705063
1.0804886012
1.0812319570
1.0813066435
1.0813856507
1.0813873102
1.0812489102
1.0809265290
1.0803840535
1.0795811029
1.0784639598
1.0769577747
1.0749584543
1.0723283651
1.0689007639
1.0645015588
1.0589981583
1.0523724320
1.0447971920
1.0366724885
1.0285737883
1.0211122248
1.0147673427
1.0097769322
1.0061309725
1.0036446890
1.0020550812
1.0010991063
1.0005572882
1.0002676227
1.0001215627
1.0000521645
1.0000211706
1.0000083201
1.0000038230
1.0000020588
1.4186443035
1.4146241239
1.4152854393
1.4165523458
1.4183190824
1.4204392642
1.4227404041
1.4250426021
1.4271779519
1.4290092982
1.4304448809
1.4314450742
1.4320206073
1.4322226764
1.4321282584
1.4318250142
1.4313992302
1.4309302517
1.4304903027
1.4301456119
1.4299543663
1.4302657155
1.0835660850
1.0839531369
1.0841274326
1.0843742369
1.0845828426
1.0846759780
1.0846075387
1.0843471230
1.0838651632
1.0831228532
1.0820637896
1.0806037051
1.0786204571
1.0759473702
1.0723779186
1.0676956734
1.0617384486
1.0544936771
1.0461931918
1.0373428026
1.0286362108
1.0207667051
1.0142284591
1.0092159299
1.0056502449
1.0032829372
1.0018089738
1.0009454241
1.0004684108
1.0002197989
1.0000975989
1.0000410876
1.0000168347
1.0000080983
1.0000045248
1.4105579998
1.4067911851
1.4076098278
1.4091844468
1.4113953976
1.4140756495
1.4170257904
1.4200338838
1.4228967482
1.4254412378
1.4275421142
1.4291320993
1.4302028706
1.4307968102
1.4309920976
1.4308856729
1.4305783199
1.4301664805
1.4297407781
1.4293871041
1.4291837988
1.4292643645
1.0857683363
1.0858555046
1.0861485928
1.0865863539
1.0870177170
1.0873456530
1.0875199535
1.0875150742
1.0873115632
1.0868850771
1.0861985034
1.0851917490
1.0837695260
1.0817878607
1.0790446457
1.0752878204
1.0702560622
1.0637646401
1.0558282338
1.0467678847
1.0372224606
1.0280102923
1.0198835869
1.0133143271
1.0084214002
1.0050402487
1.0028585850
1.0015376005
1.0007844576
1.0003794248
1.0001739112
1.0000757483
1.0000322647
1.0000161867
1.0000093530
1.4028107410
1.3993722378
1.4003441719
1.4022171528
1.4048556327
1.4080701039
1.4116335723
1.4153032478
1.4188437424
1.4220501871
1.4247681540
1.4269057905
1.4284368290
1.4293939837
1.4298544904
1.4299221152
1.4297102324
1.4293315474
1.4288957564
1.4285112475
1.4282819668
1.4282101186
1.0871818361
1.0870226522
1.0874634355
1.0881276515
1.0888096222
1.0893869607
1.0898035641
1.0900379190
1.0900796839
1.0899174961
1.0895319393
1.0888866832
1.0879167505
1.0865124841
1.0845013191
1.0816379881
1.0776182137
1.0721365905
1.0650022920
1.0562890367
1.0464468201
1.0362733852
1.0267015701
1.0185034085
1.0120822587
1.0074492781
1.0043458740
1.0024029359
1.0012602618
1.0006270240
1.0002959813
1.0001330474
1.0000587502
1.0000306260
1.0000182447
1.3955467723
1.3925083858
1.3936250828
1.3957779412
1.3988133715
1.4025177334
1.4066364731
1.4108983689
1.4150405564
1.4188325522
1.4220967679
1.4247212413
1.4266636999
1.4279464743
1.4286431321
1.4288606385
1.4287215272
1.4283523496
1.4278812553
1.4274415673
1.4271696843
1.4270191917
1.0878870682
1.0875293977
1.0881593986
1.0891000805
1.0900739374
1.0909278316
1.0915984097
1.0920676070
1.0923333566
1.0923957603
1.0922507818
1.0918831971
1.0912568966
1.0902994908
1.0888804808
1.0867899143
1.0837293633
1.0793366757
1.0732706962
1.0653619098
1.0557892428
1.0451772990
1.0344950246
1.0247592326
1.0167046139
1.0106139840
1.0063680143
1.0036162662
1.0019469362
1.0009945746
1.0004824542
1.0002232844
1.0001019352
1.0000550208
1.0000336955
1.3888997734
1.3863245093
1.3875701834
1.3899703443
1.3933521587
1.3974777112
1.4020669110
1.4068247270
1.4114675673
1.4157469741
1.4194691560
1.4225068866
1.4248037728
1.4263706200
1.4272738125
1.4276187447
1.4275322456
1.4271506993
1.4266186085
1.4260961059
1.4257608869
1.4255928547
1.0879433962
1.0874263812
1.0883040181
1.0895883929
1.0909105418
1.0920823584
1.0930324710
1.0937457713
1.0942277950
1.0944889378
1.0945384732
1.0943791644
1.0940001815
1.0933642002
1.0923858047
1.0909047643
1.0886616728
1.0852937941
1.0803804541
1.0735632415
1.0647387682
1.0542513731
1.0429398099
1.0319351332
1.0222797346
1.0145981014
1.0090079779
1.0052509735
1.0028987335
1.0015179174
1.0007551592
1.0003590166
1.0001689982
1.0000941335
1.0000591020
1.3829837078
1.3809197341
1.3822693500
1.3848668378
1.3885210206
1.3929723958
1.3979204255
1.4030535865
1.4080761197
1.4127299769
1.4168119655
1.4201837681
1.4227759371
1.4245858301
1.4256683692
1.4261217279
1.4260710330
1.4256570187
1.4250367585
1.4243981703
1.4239718480
1.4238304318
1.0873720705
1.0867235336
1.0879306997
1.0896467464
1.0913911673
1.0929392967
1.0942114523
1.0951945595
1.0959009246
1.0963504346
1.0965642920
1.0965607008
1.0963502744
1.0959263796
1.0952461024
1.0942028119
1.0925936623
1.0900947008
1.0862700122
1.0806478425
1.0728892116
1.0630227757
1.0516231159
1.0397660184
1.0286997724
1.0194034724
1.0123184547
1.0073692232
1.0041677219
1.0022340376
1.0011378018
1.0005544787
1.0002684256
1.0001537989
1.0000987419
1.3778810255
1.3763562297
1.3777750139
1.3805021151
1.3843320145
1.3889900485
1.3941638028
1.3995350023
1.4048052402
1.4097148712
1.4140568709
1.4176845543
1.4205152926
1.4225303062
1.4237683212
1.4243142183
1.4242847185
1.4238181261
1.4230782837
1.4222802316
1.4217225960
1.4216349309
1.0861351647
1.0853700201
1.0870231975
1.0892853763
1.0915484920
1.0935540454
1.0952133907
1.0965131029
1.0974707944
1.0981154420
1.0984798489
1.0985963812
1.0984942300
1.0981929785
1.0976872533
1.0969215909
1.0957554324
1.0939258315
1.0910287672
1.0865514612
1.0799953478
1.0711032255
1.0601181127
1.0479039379
1.0357585560
1.0249553498
1.0163062859
1.0100107997
1.0057970086
1.0031772734
1.0016539385
1.0008245395
1.0004094790
1.0002406078
1.0001575757
1.3736332490
1.3726514552
1.3740963880
1.3768710162
1.3807630299
1.3854928756
1.3907478158
1.3962139505
1.4015994458
1.4066495524
1.4111570324
1.4149678400
1.4179849540
1.4201703657
1.4215419191
1.4221652401
1.4221416643
1.4215990948
1.4206996871
1.4196817066
1.4189307527
1.4189102162
1.0841021499
1.0832219724
1.0854923601
1.0884526715
1.0913645928
1.0939437444
1.0960889814
1.0977809401
1.0990401103
1.0999050913
1.1004218424
1.1006377597
1.1005997071
1.1003503086
1.0999166192
1.0992890099
1.0983875334
1.0970190700
1.0948401241
1.0913529704
1.0859781436
1.0782417464
1.0680574570
1.0559745414
1.0431740250
1.0310995755
1.0209204584
1.0131817343
1.0078128289
1.0043744915
1.0023242101
1.0011831577
1.0006013171
1.0003613213
1.0002408290
1.3702342900
1.3697742111
1.3711975671
1.3739302221
1.3777637436
1.3824268731
1.3876197215
1.3930437884
1.3984215128
1.4035073391
1.4080953425
1.4120236754
1.4151791121
1.4175014693
1.4189835985
1.4196664769
1.4196291278
1.4189798657
1.4178669670
1.4165416276
1.4154974874
1.4155486985
1.0809919320
1.0799855212
1.0831379581
1.0870100297
1.0907608359
1.0940905100
1.0968735469
1.0990738907
1.1007123667
1.1018406347
1.1025232218
1.1028271136
1.1028190561
1.1025638902
1.1021172592
1.1015094303
1.1007155235
1.0996121285
1.0979296559
1.0952220975
1.0908943281
1.0843364010
1.0751845620
1.0636385638
1.0506295191
1.0376160156
1.0260482911
1.0168454111
1.0102167045
1.0058397149
1.0031630315
1.0016414230
1.0008518093
1.0005220298
1.0003533590
1.3676297558
1.3676473345
1.3690016799
1.3716047148
1.3752642765
1.3797316721
1.3847327825
1.3899939696
1.3952573550
1.4002886048
1.4048829619
1.4088695288
1.4121171053
1.4145410673
1.4161061303
1.4168240635
1.4167448337
1.4159465565
1.4145460986
1.4127850807
1.4112811072
1.4114051564
1.0762665499
1.0751114489
1.0795874570
1.0847052171
1.0896047967
1.0939707513
1.0976256289
1.1005024807
1.1026251110
1.1040697792
1.1049326297
1.1053108282
1.1052976014
1.1049822564
1.1044471594
1.1037571545
1.1029352800
1.1019223915
1.1005252979
1.0983692290
1.0948893551
1.0894123177
1.0813715266
1.0706397618
1.0578228076
1.0442472824
1.0315231323
1.0209192292
1.0129794403
1.0075690547
1.0041751362
1.0022053816
1.0011661534
1.0007271381
1.0004988624
1.3657241624
1.3661579299
1.3674014144
1.3697984174
1.3731851294
1.3773485282
1.3820511003
1.3870509474
1.3921128325
1.3970138737
1.4015494416
1.4055383363
1.4088303260
1.4113152463
1.4129278055
1.4136469545
1.4134869444
1.4124831516
1.4106958158
1.4083118425
1.4060606499
1.4062596314
1.0689133441
1.0675785552
1.0741999085
1.0811718526
1.0877767084
1.0936462017
1.0985128391
1.1022796308
1.1049974803
1.1067970345
1.1078318360
1.1082478543
1.1081761857
1.1077356393
1.1070350625
1.1061692453
1.1052013395
1.1041279549
1.1028275940
1.1010031631
1.0981474736
1.0935791700
1.0866040266
1.0768250413
1.0645060458
1.0507336404
1.0371418387
1.0252778574
1.0160380633
1.0095365546
1.0053522571
1.0028737865
1.0015453885
1.0009782495
1.0006789909
1.3643933388
1.3651717611
1.3662723992
1.3684054277
1.3714450630
1.3752238253
1.3795481573
1.3842116891
1.3890025719
1.3937084623
1.3981237060
1.4020563136
1.4053374390
1.4078322863
1.4094459115
1.4101227346
1.4098353060
1.4085613787
1.4062681004
1.4030007222
1.3994922140
1.3997732714
1.0568786736
1.0553271775
1.0659250789
1.0760639201
1.0854086689
1.0934877012
1.0999745717
1.1048203393
1.1081810452
1.1103019240
1.1114344521
1.1117981628
1.1115753067
1.1109192931
1.1099646915
1.1088309454
1.1076125108
1.1063511005
1.1049874887
1.1032994746
1.1008497253
1.0969854225
1.0909476316
1.0821387971
1.0705082546
1.0568456641
1.0426891178
1.0297639857
1.0192974382
1.0116922333
1.0066706781
1.0036361673
1.0019850306
1.0012731156
1.0008925032
1.3635020311
1.3645513646
1.3654893652
1.3673225514
1.3699688430
1.3733114999
1.3772039105
1.3814756295
1.3859367263
1.3903833247
1.3946073089
1.3984059543
1.4015938150
1.4040155729
1.4055524280
1.4061206042
1.4056549360
1.4040689176
1.4011940378
1.3967740200
1.3911265626
1.3915080930
1.0350497683
1.0332292820
1.0532252261
1.0696976728
1.0835438479
1.0946321369
1.1029762756
1.1088512167
1.1126812860
1.1149134841
1.1159396340
1.1160709554
1.1155460323
1.1145509314
1.1132398936
1.1117480890
1.1101899971
1.1086395914
1.1070872405
1.1053767093
1.1031416947
1.0997780107
1.0945079954
1.0865989162
1.0757373838
1.0624061511
1.0479624522
1.0342046641
1.0226370558
1.0139633035
1.0080904063
1.0044716790
1.0024741109
1.0016048496
1.0011346158
1.3629235233
1.3641746187
1.3649428253
1.3664627828
1.3686971229
1.3715798032
1.3750093820
1.3788478446
1.3829224394
1.3870323775
1.3909615584
1.3944911611
1.3974144225
1.3995528285
1.4007664179
1.4009589108
1.4000712564
1.3980480101
1.3947471521
1.3897177707
1.3819003058
1.3824309187
0.9868001323
0.9845657370
1.0349852793
1.0651728561
1.0856058399
1.0997285725
1.1092778693
1.1154188701
1.1190474613
1.1208620162
1.1213865634
1.1209995665
1.1199704841
1.1184957942
1.1167306905
1.1148097594
1.1128522829
1.1109495428
1.1091269560
1.1072819121
1.1051132828
1.1020733257
1.0973954144
1.0902651800
1.0801657304
1.0672967079
1.0527904532
1.0384285797
1.0259213563
1.0162584585
1.0095562609
1.0053490130
1.0029948146
1.0019615531
1.0013966734
1.3625557749
1.3639489230
1.3645523643
1.3657675830
1.3675988542
1.3700263893
1.3729882874
1.3763722430
1.3800145597
1.3837069534
1.3872099877
1.3902640531
1.3925984984
1.3939353246
1.3939732625
1.3923423062
1.3884982621
1.3814842186
1.3693972136
1.3480915819
1.3076745320
1.2232588309
1.1132474074
1.1271455314
1.0676328960
1.0738656481
1.0888636744
1.1004098866
1.1098930601
1.1172498028
1.1224742701
1.1257594551
1.1274291172
1.1278405884
1.1273143986
1.1261073500
1.1244137272
1.1223803086
1.1201280734
1.1177688771
1.1154108647
1.1131490469
1.1110309217
1.1089953854
1.1067977883
1.1039470234
1.0997044605
1.0932138243
1.0838105139
1.0714538179
1.0570434610
1.0422817708
1.0290124238
1.0184753011
1.0110013855
1.0062278435
1.0035230545
1.0023265990
1.0016663255
1.3623292833
1.3638167631
1.3642717882
1.3652118884
1.3666777001
1.3686895347
1.3712193130
1.3741761174
1.3774030305
1.3806846658
1.3837624577
1.3863465952
1.3881251643
1.3887675166
1.3879080403
1.3851056554
1.3797602086
1.3709398925
1.3570462491
1.3351243532
1.2993487324
1.2388520268
1.1100004077
1.1244758223
1.0958883558
1.0963239488
1.1045656270
1.1129637410
1.1203053903
1.1260337771
1.1299949580
1.1322907067
1.1331682797
1.1329256128
1.1318427523
1.1301515043
1.1280298158
1.1256111330
1.1230043179
1.1203110511
1.1176340311
1.1150722051
1.1126909131
1.1104632867
1.1081934142
1.1054433061
1.1015102281
1.0955230268
1.0867163093
1.0748586057
1.0606358172
1.0456385962
1.0317822857
1.0205095568
1.0123528045
1.0070618292
1.0040300890
1.0026796785
1.0019283014
1.3621991219
1.3637455007
1.3640769288
1.3647876317
1.3659481112
1.3676117416
1.3697785822
1.3723760506
1.3752542952
1.3781949157
1.3809287517
1.3831501201
1.3845283414
1.3847144738
1.3833301322
1.3799381558
1.3739841791
1.3646782200
1.3507868845
1.3302600441
1.2995443925
1.2533463667
1.1673826217
1.1533699490
1.1281081209
1.1208167917
1.1217699647
1.1255027736
1.1297730672
1.1334375881
1.1359940757
1.1373175879
1.1375011713
1.1367388888
1.1352447939
1.1332117431
1.1307948015
1.1281120449
1.1252602714
1.1223314346
1.1194223556
1.1166334639
1.1140427696
1.1116498012
1.1092981294
1.1065954845
1.1028753456
1.0972674169
1.0889414802
1.0775236070
1.0635206964
1.0484059065
1.0341218844
1.0222638973
1.0135378726
1.0078026742
1.0044849893
1.0029985215
1.0021657168
1.3621324333
1.3637131526
1.3639505442
1.3644866280
1.3654145850
1.3668131091
1.3687041771
1.3710301208
1.3736480275
1.3763396126
1.3788312837
1.3808106427
1.3819404637
1.3818686553
1.3802214555
1.3765823876
1.3704503526
1.3611531938
1.3477078016
1.3285968706
1.3014143781
1.2629851480
1.2002418025
1.1745871556
1.1503062414
1.1387860641
1.1351581858
1.1354457283
1.1372641615
1.1392147575
1.1405865801
1.1410917784
1.1407016274
1.1395230886
1.1377122226
1.1354262063
1.1327984930
1.1299325641
1.1269137864
1.1238246971
1.1207556752
1.1178062891
1.1150622832
1.1125417192
1.1101174785
1.1074329104
1.1038524804
1.0985135796
1.0905468493
1.0794789930
1.0656805462
1.0505215183
1.0359460289
1.0236552080
1.0144907525
1.0084047765
1.0048577248
1.0032611548
1.0023618115
1.3621036811
1.3637026287
1.3638772975
1.3642968962
1.3650697812
1.3662917319
1.3679997519
1.3701467675
1.3725954126
1.3751287376
1.3774718933
1.3793102676
1.3803052028
1.3801061077
1.3783463574
1.3746270348
1.3684840390
1.3593182258
1.3462891718
1.3281630755
1.3031101803
1.2689200921
1.2183827633
1.1882644086
1.1639869093
1.1501725214
1.1439141738
1.1420539056
1.1422702997
1.1430717129
1.1436374026
1.1435827473
1.1428009534
1.1413406776
1.1393181416
1.1368656879
1.1341016873
1.1311194140
1.1279960800
1.1248072361
1.1216380847
1.1185866270
1.1157427886
1.1131362127
1.1106589861
1.1079786303
1.1044818687
1.0993143810
1.0915852356
1.0807589136
1.0671149351
1.0519480404
1.0371939104
1.0246190814
1.0151577192
1.0088296091
1.0051223257
1.0034483234
1.0025018317
1.3620945515
1.3637012298
1.3638446568
1.3642062367
1.3649019118
1.3660360536
1.3676533038
1.3697120929
1.3720781214
1.3745354946
1.3768092301
1.3785842265
1.3795218471
1.3792730546
1.3774755307
1.3737394966
1.3676186318
1.3585470748
1.3457469829
1.3281055890
1.3040361356
1.2717257617
1.2264361823
1.1948734363
1.1704647229
1.1556350887
1.1481832614
1.1453071046
1.1447457483
1.1449808179
1.1451456609
1.1448116388
1.1438345750
1.1422343690
1.1401072616
1.1375730728
1.1347426076
1.1317040503
1.1285305047
1.1252939080
1.1220766649
1.1189757186