<VTKFile type="UnstructuredGrid" version="0.1">
	<UnstructuredGrid>
		<Piece NumberOfPoints="13548" NumberOfCells="3387">
			<CellData>
				<DataArray type="Int32" Name="ghost" NumberOfComponents="1" Format="ascii">
1
1
1
1
1
1
1
1
1
1
1
1
1
1
1
1
1
1
1
1
1
1
1
1
1
1
1
1
1
1
1
1
1
1
1
1
1
1
1
1
1
1
1
1
1
1
1
1
1
1
1
1
1
1
1
1
1
1
0
0
0
0
0
0
0
0
0
0
0
0
0
0
0
0
0
0
0
0
1
1
0
0
0
0
0
0
0
0
0
0
0
0
0
0
0
0
0
0
0
0
0
0
0
0
0
0
0
0
0
0
0
0
0
1
1
0
0
0
0
0
0
0
0
0
0
0
0
0
0
0
0
0
0
0
0
1
1
0
0
0
0
0
0
0
0
0
0
0
0
0
0
0
0
0
0
0
0
0
0
0
0
0
0
0
0
0
0
0
0
0
1
1
0
0
0
0
0
0
0
0
0
0
0
0
0
0
0
0
0
0
0
0
1
1
0
0
0
0
0
0
0
0
0
0
0
0
0
0
0
0
0
0
0
0
0
0
0
0
0
0
0
0
0
0
0
0
0
1
1
0
0
0
0
0
0
0
0
0
0
0
0
0
0
0
0
0
0
0
0
1
1
0
0
0
0
0
0
0
0
0
0
0
0
0
0
0
0
0
0
0
0
0
0
0
0
0
0
0
0
0
0
0
0
0
1
1
0
0
0
0
0
0
0
0
0
0
0
0
0
0
0
0
0
0
0
0
1
1
0
0
0
0
0
0
0
0
0
0
0
0
0
0
0
0
0
0
0
0
0
0
0
0
0
0
0
0
0
0
0
0
0
1
1
0
0
0
0
0
0
0
0
0
0
0
0
0
0
0
0
0
0
0
0
1
1
0
0
0
0
0
0
0
0
0
0
0
0
0
0
0
0
0
0
0
0
0
0
0
0
0
0
0
0
0
0
0
0
0
1
1
0
0
0
0
0
0
0
0
0
0
0
0
0
0
0
0
0
0
0
0
1
1
0
0
0
0
0
0
0
0
0
0
0
0
0
0
0
0
0
0
0
0
0
0
0
0
0
0
0
0
0
0
0
0
0
1
1
0
0
0
0
0
0
0
0
0
0
0
0
0
0
0
0
0
0
0
0
1
1
0
0
0
0
0
0
0
0
0
0
0
0
0
0
0
0
0
0
0
0
0
0
0
0
0
0
0
0
0
0
0
0
0
1
1
0
0
0
0
0
0
0
0
0
0
0
0
0
0
0
0
0
0
0
0
1
1
0
0
0
0
0
0
0
0
0
0
0
0
0
0
0
0
0
0
0
0
0
0
0
0
0
0
0
0
0
0
0
0
0
1
1
0
0
0
0
0
0
0
0
0
0
0
0
0
0
0
0
0
0
0
0
1
1
0
0
0
0
0
0
0
0
0
0
0
0
0
0
0
0
0
0
0
0
0
0
0
0
0
0
0
0
0
0
0
0
0
1
1
0
0
0
0
0
0
0
0
0
0
0
0
0
0
0
0
0
0
0
0
1
1
0
0
0
0
0
0
0
0
0
0
0
0
0
0
0
0
0
0
0
0
0
0
0
0
0
0
0
0
0
0
0
0
0
1
1
0
0
0
0
0
0
0
0
0
0
0
0
0
0
0
0
0
0
0
0
1
1
0
0
0
0
0
0
0
0
0
0
0
0
0
0
0
0
0
0
0
0
0
0
0
0
0
0
0
0
0
0
0
0
0
1
1
0
0
0
0
0
0
0
0
0
0
0
0
0
0
0
0
0
0
0
0
1
1
0
0
0
0
0
0
0
0
0
0
0
0
0
0
0
0
0
0
0
0
0
0
0
0
0
0
0
0
0
0
0
0
0
1
1
0
0
0
0
0
0
0
0
0
0
0
0
0
0
0
0
0
0
0
0
1
1
0
0
0
0
0
0
0
0
0
0
0
0
0
0
0
0
0
0
0
0
0
0
0
0
0
0
0
0
0
0
0
0
0
1
1
0
0
0
0
0
0
0
0
0
0
0
0
0
0
0
0
0
0
0
0
1
1
0
0
0
0
0
0
0
0
0
0
0
0
0
0
0
0
0
0
0
0
0
0
0
0
0
0
0
0
0
0
0
0
0
1
1
0
0
0
0
0
0
0
0
0
0
0
0
0
0
0
0
0
0
0
0
1
1
0
0
0
0
0
0
0
0
0
0
0
0
0
0
0
0
0
0
0
0
0
0
0
0
0
0
0
0
0
0
0
0
0
1
1
0
0
0
0
0
0
0
0
0
0
0
0
0
0
0
0
0
0
0
0
1
1
0
0
0
0
0
0
0
0
0
0
0
0
0
0
0
0
0
0
0
0
0
0
0
0
0
0
0
0
0
0
0
0
0
1
1
0
0
0
0
0
0
0
0
0
0
0
0
0
0
0
0
0
0
0
0
1
1
0
0
0
0
0
0
0
0
0
0
0
0
0
0
0
0
0
0
0
0
0
0
0
0
0
0
0
0
0
0
0
0
0
1
1
0
0
0
0
0
0
0
0
0
0
0
0
0
0
0
0
0
0
0
0
1
1
0
0
0
0
0
0
0
0
0
0
0
0
0
0
0
0
0
0
0
0
0
0
0
0
0
0
0
0
0
0
0
0
0
1
1
0
0
0
0
0
0
0
0
0
0
0
0
0
0
0
0
0
0
0
0
1
1
0
0
0
0
0
0
0
0
0
0
0
0
0
0
0
0
0
0
0
0
0
0
0
0
0
0
0
0
0
0
0
0
0
1
1
0
0
0
0
0
0
0
0
0
0
0
0
0
0
0
0
0
0
0
0
1
1
0
0
0
0
0
0
0
0
0
0
0
0
0
0
0
0
0
0
0
0
0
0
0
0
0
0
0
0
0
0
0
0
0
1
1
0
0
0
0
0
0
0
0
0
0
0
0
0
0
0
0
0
0
0
0
1
1
0
0
0
0
0
0
0
0
0
0
0
0
0
0
0
0
0
0
0
0
0
0
0
0
0
0
0
0
0
0
0
0
0
1
1
0
0
0
0
0
0
0
0
0
0
0
0
0
0
0
0
0
0
0
0
1
1
0
0
0
0
0
0
0
0
0
0
0
0
0
0
0
0
0
0
0
0
0
0
0
0
0
0
0
0
0
0
0
0
0
1
1
0
0
0
0
0
0
0
0
0
0
0
0
0
0
0
0
0
0
0
0
1
1
0
0
0
0
0
0
0
0
0
0
0
0
0
0
0
0
0
0
0
0
0
0
0
0
0
0
0
0
0
0
0
0
0
1
1
0
0
0
0
0
0
0
0
0
0
0
0
0
0
0
0
0
0
0
0
0
1
1
0
0
0
0
0
0
0
0
0
0
0
0
0
0
0
0
0
0
0
0
0
0
0
0
0
0
0
0
0
0
0
0
0
0
1
1
0
0
0
0
0
0
0
0
0
0
0
0
0
0
0
0
0
0
0
0
0
0
0
0
0
0
0
0
0
0
0
0
0
0
0
0
0
0
0
0
0
0
0
0
0
0
0
0
0
0
0
0
0
0
0
0
0
1
1
0
0
0
0
0
0
0
0
0
0
0
0
0
0
0
0
0
0
0
0
0
0
0
0
0
0
0
0
0
0
0
0
0
0
0
0
0
0
0
0
0
0
0
0
0
0
0
0
0
0
0
0
0
0
0
0
0
1
1
0
0
0
0
0
0
0
0
0
0
0
0
0
0
0
0
0
0
0
0
0
0
0
0
0
0
0
0
0
0
0
0
0
0
0
0
0
0
0
0
0
0
0
0
0
0
0
0
0
0
0
0
0
0
0
0
0
1
1
0
0
0
0
0
0
0
0
0
0
0
0
0
0
0
0
0
0
0
0
0
0
0
0
0
0
0
0
0
0
0
0
0
0
0
0
0
0
0
0
0
0
0
0
0
0
0
0
0
0
0
0
0
0
0
0
0
1
1
0
0
0
0
0
0
0
0
0
0
0
0
0
0
0
0
0
0
0
0
0
0
0
0
0
0
0
0
0
0
0
0
0
0
0
0
0
0
0
0
0
0
0
0
0
0
0
0
0
0
0
0
0
0
0
0
0
1
1
0
0
0
0
0
0
0
0
0
0
0
0
0
0
0
0
0
0
0
0
0
0
0
0
0
0
0
0
0
0
0
0
0
0
0
0
0
0
0
0
0
0
0
0
0
0
0
0
0
0
0
0
0
0
0
0
0
1
1
0
0
0
0
0
0
0
0
0
0
0
0
0
0
0
0
0
0
0
0
0
0
0
0
0
0
0
0
0
0
0
0
0
0
0
0
0
0
0
0
0
0
0
0
0
0
0
0
0
0
0
0
0
0
0
0
0
1
1
0
0
0
0
0
0
0
0
0
0
0
0
0
0
0
0
0
0
0
0
0
0
0
0
0
0
0
0
0
0
0
0
0
0
0
0
0
0
0
0
0
0
0
0
0
0
0
0
0
0
0
0
0
0
0
0
0
1
1
0
0
0
0
0
0
0
0
0
0
0
0
0
0
0
0
0
0
0
0
0
0
0
0
0
0
0
0
0
0
0
0
0
0
0
0
0
0
0
0
0
0
0
0
0
0
0
0
0
0
0
0
0
0
0
0
0
1
1
0
0
0
0
0
0
0
0
0
0
0
0
0
0
0
0
0
0
0
0
0
0
0
0
0
0
0
0
0
0
0
0
0
0
0
0
0
0
0
0
0
0
0
0
0
0
0
0
0
0
0
0
0
0
0
0
0
1
1
0
0
0
0
0
0
0
0
0
0
0
0
0
0
0
0
0
0
0
0
0
1
1
0
0
0
0
0
0
0
0
0
0
0
0
0
0
0
0
0
0
0
0
0
0
0
0
0
0
0
0
0
0
0
0
0
0
1
1
0
0
0
0
0
0
0
0
0
0
0
0
0
0
0
0
0
0
0
0
1
1
0
0
0
0
0
0
0
0
0
0
0
0
0
0
0
0
0
0
0
0
0
0
0
0
0
0
0
0
0
0
0
0
0
1
1
0
0
0
0
0
0
0
0
0
0
0
0
0
0
0
0
0
0
0
0
1
1
0
0
0
0
0
0
0
0
0
0
0
0
0
0
0
0
0
0
0
0
0
0
0
0
0
0
0
0
0
0
0
0
0
1
1
0
0
0
0
0
0
0
0
0
0
0
0
0
0
0
0
0
0
0
0
1
1
0
0
0
0
0
0
0
0
0
0
0
0
0
0
0
0
0
0
0
0
0
0
0
0
0
0
0
0
0
0
0
0
0
1
1
0
0
0
0
0
0
0
0
0
0
0
0
0
0
0
0
0
0
0
0
1
1
0
0
0
0
0
0
0
0
0
0
0
0
0
0
0
0
0
0
0
0
0
0
0
0
0
0
0
0
0
0
0
0
0
1
1
0
0
0
0
0
0
0
0
0
0
0
0
0
0
0
0
0
0
0
0
1
1
0
0
0
0
0
0
0
0
0
0
0
0
0
0
0
0
0
0
0
0
0
0
0
0
0
0
0
0
0
0
0
0
0
1
1
0
0
0
0
0
0
0
0
0
0
0
0
0
0
0
0
0
0
0
0
1
1
0
0
0
0
0
0
0
0
0
0
0
0
0
0
0
0
0
0
0
0
0
0
0
0
0
0
0
0
0
0
0
0
0
1
1
0
0
0
0
0
0
0
0
0
0
0
0
0
0
0
0
0
0
0
0
1
1
0
0
0
0
0
0
0
0
0
0
0
0
0
0
0
0
0
0
0
0
0
0
0
0
0
0
0
0
0
0
0
0
0
1
1
0
0
0
0
0
0
0
0
0
0
0
0
0
0
0
0
0
0
0
0
1
1
0
0
0
0
0
0
0
0
0
0
0
0
0
0
0
0
0
0
0
0
0
0
0
0
0
0
0
0
0
0
0
0
0
1
1
0
0
0
0
0
0
0
0
0
0
0
0
0
0
0
0
0
0
0
0
1
1
0
0
0
0
0
0
0
0
0
0
0
0
0
0
0
0
0
0
0
0
0
0
0
0
0
0
0
0
0
0
0
0
0
1
1
0
0
0
0
0
0
0
0
0
0
0
0
0
0
0
0
0
0
0
0
1
1
0
0
0
0
0
0
0
0
0
0
0
0
0
0
0
0
0
0
0
0
0
0
0
0
0
0
0
0
0
0
0
0
0
1
1
0
0
0
0
0
0
0
0
0
0
0
0
0
0
0
0
0
0
0
0
1
1
0
0
0
0
0
0
0
0
0
0
0
0
0
0
0
0
0
0
0
0
0
0
0
0
0
0
0
0
0
0
0
0
0
1
1
0
0
0
0
0
0
0
0
0
0
0
0
0
0
0
0
0
0
0
0
1
1
0
0
0
0
0
0
0
0
0
0
0
0
0
0
0
0
0
0
0
0
0
0
0
0
0
0
0
0
0
0
0
0
0
1
1
0
0
0
0
0
0
0
0
0
0
0
0
0
0
0
0
0
0
0
0
1
1
0
0
0
0
0
0
0
0
0
0
0
0
0
0
0
0
0
0
0
0
0
0
0
0
0
0
0
0
0
0
0
0
0
1
1
0
0
0
0
0
0
0
0
0
0
0
0
0
0
0
0
0
0
0
0
1
1
0
0
0
0
0
0
0
0
0
0
0
0
0
0
0
0
0
0
0
0
0
0
0
0
0
0
0
0
0
0
0
0
0
1
1
0
0
0
0
0
0
0
0
0
0
0
0
0
0
0
0
0
0
0
0
1
1
0
0
0
0
0
0
0
0
0
0
0
0
0
0
0
0
0
0
0
0
0
0
0
0
0
0
0
0
0
0
0
0
0
1
1
0
0
0
0
0
0
0
0
0
0
0
0
0
0
0
0
0
0
0
0
1
1
0
0
0
0
0
0
0
0
0
0
0
0
0
0
0
0
0
0
0
0
0
0
0
0
0
0
0
0
0
0
0
0
0
1
1
0
0
0
0
0
0
0
0
0
0
0
0
0
0
0
0
0
0
0
0
1
1
0
0
0
0
0
0
0
0
0
0
0
0
0
0
0
0
0
0
0
0
0
0
0
0
0
0
0
0
0
0
0
0
0
1
1
0
0
0
0
0
0
0
0
0
0
0
0
0
0
0
0
0
0
0
0
1
1
0
0
0
0
0
0
0
0
0
0
0
0
0
0
0
0
0
0
0
0
0
0
0
0
0
0
0
0
0
0
0
0
0
1
1
0
0
0
0
0
0
0
0
0
0
0
0
0
0
0
0
0
0
0
0
1
1
0
0
0
0
0
0
0
0
0
0
0
0
0
0
0
0
0
0
0
0
0
0
0
0
0
0
0
0
0
0
0
0
0
1
1
0
0
0
0
0
0
0
0
0
0
0
0
0
0
0
0
0
0
0
0
1
1
0
0
0
0
0
0
0
0
0
0
0
0
0
0
0
0
0
0
0
0
0
0
0
0
0
0
0
0
0
0
0
0
0
1
1
0
0
0
0
0
0
0
0
0
0
0
0
0
0
0
0
0
0
0
0
1
1
0
0
0
0
0
0
0
0
0
0
0
0
0
0
0
0
0
0
0
0
0
0
0
0
0
0
0
0
0
0
0
0
0
1
1
1
1
1
1
1
1
1
1
1
1
1
1
1
1
1
1
1
1
1
1
1
1
1
1
1
1
1
1
1
1
1
1
1
1
1
1
1
1
1
1
1
1
1
1
1
1
1
1
1
1
1
1
1
1
1
1
				</DataArray>
				<DataArray type="Float64" Name="h" NumberOfComponents="1" Format="ascii">
1.2045439166
1.2032287369
1.2040149924
1.2055547149
1.2077845777
1.2106143935
1.2139325107
1.2176130161
1.2215232673
1.2255312435
1.2295127305
1.2333568365
1.2369694626
1.2402754158
1.2432187486
1.2457614516
1.2478813373
1.2495693757
1.2508261120
1.2516574278
1.2520706404
1.2520706404
1.1055727657
1.1079218345
1.1105365198
1.1156596072
1.1230611097
1.1323693465
1.1430694898
1.1545393438
1.1661275924
1.1772487602
1.1874646503
1.1965259391
1.2043633781
1.2110463921
1.2167290347
1.2215990023
1.2258418087
1.2296192220
1.2330594340
1.2362567600
1.2392748110
1.2421515315
1.2449054902
1.2475403239
1.2500483710
1.2524143049
1.2546169190
1.2566307422
1.2584283320
1.2599814599
1.2612626768
1.2622476503
1.2629163313
1.2632542882
1.2632542882
1.2032287369
1.2020128401
1.2027955038
1.2043276847
1.2065455629
1.2093588038
1.2126564109
1.2163142306
1.2202025660
1.2241932367
1.2281661871
1.2320142604
1.2356458904
1.2389866080
1.2419790283
1.2445815280
1.2467665006
1.2485183240
1.2498306277
1.2507030233
1.2511380638
1.2520706404
1.1079218345
1.1107103826
1.1134411552
1.1187586716
1.1263647112
1.1358046514
1.1464885147
1.1577498602
1.1689380205
1.1795106856
1.1890984355
1.1975239532
1.2047755870
1.2109579396
1.2162383887
1.2208017151
1.2248210260
1.2284418385
1.2317761620
1.2349043282
1.2378789639
1.2407300245
1.2434706191
1.2461008123
1.2486106282
1.2509831607
1.2531959667
1.2552224370
1.2570339823
1.2586011900
1.2598954286
1.2608912773
1.2615677693
1.2619098029
1.2632542882
1.2031286681
1.2018617323
1.2026328024
1.2041426725
1.2063291899
1.2091043026
1.2123596740
1.2159739057
1.2198198621
1.2237714900
1.2277102611
1.2315298746
1.2351389787
1.2384627765
1.2414431570
1.2440375421
1.2462173053
1.2479658946
1.2492762222
1.2501474518
1.2505819355
1.2515246750
1.1081694053
1.1109638470
1.1136617344
1.1189139515
1.1264254655
1.1357503374
1.1463135626
1.1574672734
1.1685776131
1.1791121483
1.1887021422
1.1971631130
1.2044719625
1.2107212845
1.2160684363
1.2206912468
1.2247589276
1.2284155692
1.2317734601
1.2349142234
1.2378922502
1.2407393635
1.2434704254
1.2460870356
1.2485805149
1.2509350429
1.2531291030
1.2551369081
1.2569306304
1.2584815799
1.2597618090
1.2607465190
1.2614152655
1.2617533259
1.2631045627
1.2029254555
1.2015600761
1.2023085674
1.2037749681
1.2059003398
1.2086010334
1.2117738503
1.2153027293
1.2190655138
1.2229403114
1.2268116108
1.2305748355
1.2341391142
1.2374290642
1.2403851976
1.2429630919
1.2451321335
1.2468739498
1.2481800513
1.2490487380
1.2494819915
1.2504449540
1.1086499227
1.1114562500
1.1140900554
1.1192151353
1.1265427045
1.1356434852
1.1459710756
1.1569132196
1.1678686961
1.1783248756
1.1879153691
1.1964427185
1.2038620814
1.2102426831
1.2157219918
1.2204637542
1.2246290622
1.2283588055
1.2317655328
1.2349332275
1.2379196632
1.2407603143
1.2434735160
1.2460639408
1.2485255270
1.2508446612
1.2530017175
1.2549725879
1.2567309927
1.2582497035
1.2595021460
1.2604647638
1.2611181493
1.2614483310
1.2628122113
1.2026138878
1.2011095341
1.2018256094
1.2032295593
1.2052669815
1.2078604488
1.2109140420
1.2143192909
1.2179611661
1.2217237877
1.2254960720
1.2291760533
1.2326736947
1.2359129002
1.2388322918
1.2413848396
1.2435370758
1.2452679953
1.2465670875
1.2474314395
1.2478625590
1.2488555242
1.1093353178
1.1121597112
1.1147014525
1.1196441403
1.1267080642
1.1354873031
1.1454752129
1.1561092997
1.1668348383
1.1771688479
1.1867506579
1.1953665550
1.2029419188
1.2095126138
1.2151867613
1.2201066248
1.2244203469
1.2282631675
1.2317472819
1.2349596485
1.2379627335
1.2407972685
1.2434867034
1.2460403159
1.2484560234
1.2507236078
1.2528263715
1.2547428097
1.2564490326
1.2579200461
1.2591313549
1.2600612641
1.2606919087
1.2610104279
1.2623911462
1.2021877580
1.2005132685
1.2011886427
1.2025141063
1.2044408175
1.2068989904
1.2098016753
1.2130498076
1.2165372625
1.2201557692
1.2237999606
1.2273713753
1.2307812725
1.2339528823
1.2368226112
1.2393402332
1.2414687056
1.2431836956
1.2444721575
1.2453297236
1.2457574360
1.2467896829
1.1101855771
1.1130345050
1.1154607032
1.1201749322
1.1269090716
1.1352855907
1.1448455178
1.1550863598
1.1655108525
1.1756749884
1.1852291545
1.1939434615
1.2017087544
1.2085197422
1.2144466038
1.2196025330
1.2241171266
1.2281165732
1.2317112169
1.2349909040
1.2380236123
1.2408566355
1.2435200350
1.2460291942
1.2483874158
1.2505891511
1.2526217729
1.2544674044
1.2561054692
1.2575140398
1.2586714379
1.2595584604
1.2601592851
1.2604625122
1.2618617928
1.2016414640
1.1997766322
1.2004048167
1.2016391746
1.2034371150
1.2057374623
1.2084634159
1.2115266258
1.2148312158
1.2182778062
1.2217678707
1.2252073260
1.2285092899
1.2315965381
1.2344031497
1.2368753227
1.2389719026
1.2406646896
1.2419377341
1.2427851324
1.2432076382
1.2442876447
1.1111509603
1.1140312514
1.1163238748
1.1207746400
1.1271291739
1.1350415806
1.1441049325
1.1538824964
1.1639417466
1.1738857026
1.1833827834
1.1921906501
1.2001649102
1.2072544210
1.2134843843
1.2189314985
1.2237004752
1.2279039222
1.2316476901
1.2350234666
1.2381048536
1.2409465557
1.2435864956
1.2460475767
1.2483399176
1.2504640056
1.2524125496
1.2541724546
1.2557274950
1.2570597297
1.2581510928
1.2589855327
1.2595497817
1.2598342501
1.2612506399
1.2009719861
1.1989081855
1.1994845675
1.2006187756
1.2022748263
1.2044006709
1.2069303201
1.2097869273
1.2128857476
1.2161372256
1.2194505919
1.2227369573
1.2259119326
1.2288982242
1.2316276875
1.2340427904
1.2360979372
1.2377607082
1.2390120671
1.2398447082
1.2402595136
1.2413945972
1.1121749496
1.1150938116
1.1172407784
1.1214050870
1.1273479058
1.1347565525
1.1432771499
1.1525399730
1.1621803211
1.1718540925
1.1812554306
1.1901365356
1.1983214661
1.2057124658
1.2122851898
1.2180732283
1.2231496191
1.2276077202
1.2315449148
1.2350524730
1.2382087856
1.2410761627
1.2437012492
1.2461157060
1.2483378735
1.2503757175
1.2522286793
1.2538897485
1.2553482313
1.2565912115
1.2576051212
1.2583777781
1.2588990130
1.2591614122
1.2605896433
1.2001799895
1.1979199169
1.1984416871
1.1994701481
1.2009759772
1.2029163555
1.2052362870
1.2078707246
1.2107464865
1.2137844113
1.2169021631
1.2200167601
1.2230469660
1.2259159339
1.2285535965
1.2308987597
1.2329012768
1.2345243636
1.2357459372
1.2365577021
1.2369614172
1.2381574167
1.1131963246
1.1161612880
1.1181565706
1.1220235584
1.1275404054
1.1344278617
1.1423833077
1.1511012434
1.1602835923
1.1696418960
1.1789030928
1.1878230815
1.1962021580
1.2038996607
1.2108405784
1.2170105474
1.2224443211
1.2272094463
1.2313894889
1.2350716287
1.2383370109
1.2412548569
1.2438808190
1.2462562405
1.2484089804
1.2503559558
1.2521048532
1.2536562070
1.2550062009
1.2561481340
1.2570739438
1.2577761276
1.2582482204
1.2584853868
1.2599158032
1.1992707697
1.1968275224
1.1972934975
1.1982137330
1.1995653663
1.2013145619
1.2034170881
1.2058195585
1.2084603713
1.2112709741
1.2141778796
1.2171045795
1.2199736242
1.2227092100
1.2252398072
1.2275008299
1.2294376837
1.2310092890
1.2321908043
1.2329737008
1.2333618107
1.2346228300
1.1141507433
1.1171694759
1.1190128189
1.1225830722
1.1276765054
1.1340465836
1.1414381792
1.1496040951
1.1583077654
1.1673154642
1.1763919108
1.1853063647
1.1938461817
1.2018359370
1.2091530909
1.2157333855
1.2215678463
1.2266913503
1.2311671196
1.2350730798
1.2384896781
1.2414912113
1.2441418149
1.2464929453
1.2485830358
1.2504393747
1.2520794780
1.2535130300
1.2547446095
1.2557750934
1.2566030871
1.2572267000
1.2576438684
1.2578527972
1.2592708107
1.1982552160
1.1956509060
1.1960612808
1.1968734674
1.1980706691
1.1996275162
1.2015099861
1.2036758577
1.2060747695
1.2086486660
1.2113330565
1.2140582937
1.2167512704
1.2193378473
1.2217456027
1.2239069925
1.2257632608
1.2272692952
1.2283980307
1.2291418609
1.2295084765
1.2308367442
1.1149720011
1.1180519988
1.1197482384
1.1230323220
1.1277195187
1.1335948397
1.1404458583
1.1480757756
1.1563013437
1.1649389042
1.1737926525
1.1826534503
1.1913077995
1.1995572360
1.2072393723
1.2142420802
1.2205096269
1.2260380489
1.2308630674
1.2350468469
1.2386641546
1.2417911498
1.2444988596
1.2468485564
1.2488898816
1.2506617302
1.2521930206
1.2535042877
1.2546101803
1.2555206920
1.2562424296
1.2567801955
1.2571371395
1.2573150474
1.2587005953
1.1971493444
1.1944134545
1.1947695199
1.1954759576
1.1965215082
1.1978885609
1.1995525096
1.2014815330
1.2036358823
1.2059676028
1.2084210945
1.2109337607
1.2134372741
1.2158597526
1.2181285063
1.2201735766
1.2219324645
1.2233564297
1.2244169351
1.2251088986
1.2254464327
1.2268423258
1.1155906832
1.1187388451
1.1202970014
1.1233135292
1.1276234270
1.1330421039
1.1393949219
1.1465268056
1.1542976829
1.1625660237
1.1711732593
1.1799369259
1.1886538188
1.1971160344
1.2051330064
1.2125513330
1.2192691811
1.2252395907
1.2304639697
1.2349813734
1.2388544856
1.2421566005
1.2449627299
1.2473426730
1.2493572545
1.2510578412
1.2524861782
1.2536753592
1.2546518787
1.2554365389
1.2560454479
1.2564913373
1.2567835118
1.2569279699
1.2582549370
1.1959739267
1.1931416064
1.1934454727
1.1940500598
1.1949490381
1.1961317311
1.1975820027
1.1992774786
1.2011881803
1.2032756267
1.2054927760
1.2077840730
1.2100862625
1.2123302383
1.2144436633
1.2163547524
1.2179977387
1.2193207117
1.2202945523
1.2209187751
1.2212175080
1.2226797055
1.1159315689
1.1191536883
1.1205859136
1.1233593306
1.1273293790
1.1323411820
1.1382536282
1.1449450087
1.1523075572
1.1602315845
1.1685896447
1.1772266883
1.1859578503
1.1945789287
1.2028852962
1.2106932192
1.2178600227
1.2242950676
1.2299603684
1.2348646462
1.2390511423
1.2425841179
1.2455381849
1.2479891233
1.2500079794
1.2516588373
1.2529973430
1.2540707125
1.2549190568
1.2555757614
1.2560680621
1.2564179920
1.2566420732
1.2567512397
1.2579868264
1.1947543465
1.1918647348
1.1921190740
1.1926268165
1.1933859199
1.1943917621
1.1956356500
1.1971035927
1.1987743973
1.2006182597
1.2025961775
1.2046594476
1.2067500260
1.2088019953
1.2107439360
1.2125027966
1.2140099720
1.2152107540
1.2160763170
1.2166132878
1.2168607660
1.2183865071
1.1159108984
1.1192111752
1.1205315970
1.1230897356
1.1267623829
1.1314245917
1.1369657698
1.1432903830
1.1503124797
1.1579427255
1.1660755124
1.1745792862
1.1832908668
1.1920199802
1.2005621573
1.2087173131
1.2163118895
1.2232155425
1.2293491512
1.2346854240
1.2392407849
1.2430632794
1.2462212914
1.2487925856
1.2508562400
1.2524883773
1.2537589953
1.2547306251
1.2554585847
1.2559905698
1.2563666076
1.2566194797
1.2567740741
1.2568470532
1.2579511229
1.1935190103
1.1906136426
1.1908214618
1.1912380368
1.1918649709
1.1927028101
1.1937492556
1.1949975916
1.1964343515
1.1980375029
1.1997754303
1.2016059436
1.2034762036
1.2053237702
1.2070786044
1.2086668432
1.2100173079
1.2110725895
1.2118047788
1.2122304729
1.2124105283
1.2139959203
1.1154313133
1.1188119732
1.1200357421
1.1224076850
1.1258273542
1.1302012568
1.1354479589
1.1414925869
1.1482616714
1.1556746039
1.1636362054
1.1720303068
1.1807133721
1.1895144139
1.1982408197
1.2066909303
1.2146739600
1.2220289330
1.2286386260
1.2344373313
1.2394087135
1.2435773183
1.2469984120
1.2497462881
1.2519044072
1.2535589989
1.2547939014
1.2556874740
1.2563113911
1.2567291330
1.2569950597
1.2571541102
1.2572406937
1.2572780167
1.2582024722
1.1922982608
1.1894195671
1.1895840238
1.1899154232
1.1904183981
1.1910978052
1.1919567159
1.1929945901
1.1942046123
1.1955715686
1.1970704958
1.1986652695
1.2003081233
1.2019402512
1.2034933192
1.2048929278
1.2060652859
1.2069498595
1.2075196539
1.2078041952
1.2078953366
1.2095356077
1.1143786251
1.1178397419
1.1189824765
1.1211969848
1.1244079072
1.1285564581
1.1335908340
1.1394531258
1.1460745069
1.1533720214
1.1612484206
1.1695916072
1.1782705649
1.1871331479
1.1960056207
1.2046976862
1.2130166392
1.2207843630
1.2278540825
1.2341241712
1.2395428252
1.2441051442
1.2478461909
1.2508302000
1.2531398443
1.2548679943
1.2561104780
1.2569609310
1.2575077385
1.2578310838
1.2580008362
1.2580752744
1.2580993566
1.2581035852
1.2587919593
1.1911234980
1.1883133396
1.1884375947
1.1886898401
1.1890771636
1.1896079310
1.1902896186
1.1911268165
1.1921183194
1.1932547865
1.1945171463
1.1958748293
1.1972849131
1.1986922571
1.2000303922
1.2012244112
1.2021974257
1.2028845200
1.2032584228
1.2033641034
1.2033368693
1.2050264962
1.1126234407
1.1161630782
1.1172409086
1.1193255787
1.1223707291
1.1263577185
1.1312666579
1.1370544797
1.1436504711
1.1509589783
1.1588678018
1.1672555559
1.1759926381
1.1849398041
1.1939435272
1.2028337610
1.2114302724
1.2195538700
1.2270418564
1.2337650112
1.2396382958
1.2446245501
1.2487327370
1.2520101108
1.2545321290
1.2563931844
1.2576975712
1.2585521587
1.2590611673
1.2593214467
1.2594188462
1.2594256665
1.2593981112
1.2593745309
1.2597620687
1.1900248190
1.1873230258
1.1874101334
1.1875890606
1.1878688299
1.1882605870
1.1887753326
1.1894218274
1.1902035126
1.1911160278
1.1921454537
1.1932662435
1.1944400219
1.1956152273
1.1967272351
1.1977003604
1.1984535514
1.1989150624
1.1990541453
1.1989322209
1.1987445437
1.2004771411
1.1100255524
1.1136402375
1.1146710957
1.1166530457
1.1195752844
1.1234673804
1.1283450948
1.1341789001
1.1408901661
1.1483604211
1.1564494455
1.1650121778
1.1739069312
1.1829973911
1.1921463743
1.2012079367
1.2100255546
1.2184350616
1.2262748027
1.2334017897
1.2397059234
1.2451198176
1.2496233782
1.2532409501
1.2560338339
1.2580913902
1.2595210258
1.2604389375
1.2609626122
1.2612041044
1.2612645770
1.2612301749
1.2611684339
1.2611257186
1.2611402908
1.1890291631
1.1864720050
1.1865248426
1.1866359649
1.1868158693
1.1870778381
1.1874356170
1.1879012893
1.1884820851
1.1891778208
1.1899790473
1.1908647197
1.1918006671
1.1927387114
1.1936158624
1.1943550543
1.1948693180
1.1950760463
1.1949346345
1.1945203982
1.1941094486
1.1958773003
1.1064466986
1.1101322052
1.1111389063
1.1130472693
1.1158932145
1.1197655965
1.1247201141
1.1307388262
1.1377280811
1.1455355372
1.1539794305
1.1628764900
1.1720589569
1.1813818102
1.1907170925
1.1999424005
1.2089318832
1.2175500872
1.2256539987
1.2331043612
1.2397797639
1.2455904272
1.2504888362
1.2544731763
1.2575844118
1.2598995942
1.2615222589
1.2625719954
1.2631749153
1.2634549207
1.2635262135
1.2634873215
1.2634162538
1.2633669343
1.2629313315
1.1881583092
1.1857768786
1.1857981083
1.1858465420
1.1859337587
1.1860746272
1.1862849749
1.1865794887
1.1869684603
1.1874551960
1.1880341206
1.1886882092
1.1893871258
1.1900857800
1.1907224145
1.1912176385
1.1914760700
1.1913982522
1.1909225550
1.1901281502
1.1893957687
1.1911889045
1.1017693306
1.1055217577
1.1065377308
1.1084083104
1.1112358761
1.1151827236
1.1203473882
1.1267182646
1.1341759335
1.1425204804
1.1515142611
1.1609222326
1.1705384349
1.1801988974
1.1897775483
1.1991726330
1.2082920186
1.2170386726
1.2253035673
1.2329693231
1.2399205073
1.2460580706
1.2513141441
1.2556617425
1.2591176996
1.2617400120
1.2636204563
1.2648742891
1.2656294205
1.2660160282
1.2661570652
1.2661603006
1.2661120734
1.2660725506
1.2651086902
1.1874256866
1.1852442349
1.1852362806
1.1852266991
1.1852278267
1.1852556668
1.1853275881
1.1854603042
1.1856665895
1.1859526917
1.1863164308
1.1867443868
1.1872096896
1.1876699567
1.1880640741
1.1883090413
1.1882978270
1.1879059041
1.1870326271
1.1857364230
1.1845217694
1.1863263594
1.0959043271
1.0997215216
1.1008018083
1.1026866122
1.1055806868
1.1097355120
1.1152896643
1.1222245532
1.1303767531
1.1394805791
1.1492277961
1.1593212387
1.1695097692
1.1796053185
1.1894797338
1.1990495993
1.2082571829
1.2170492632
1.2253616618
1.2331142711
1.2402151015
1.2465719957
1.2521085605
1.2567785748
1.2605748016
1.2635315599
1.2657213632
1.2672464371
1.2682278540
1.2687943293
1.2690711221
1.2691701964
1.2691825702
1.2691723032
1.2676077568
1.1868340373
1.1848683211
1.1848333293
1.1847698810
1.1846908072
1.1846128841
1.1845545957
1.1845342467
1.1845666734
1.1846606864
1.1848171936
1.1850261215
1.1852638076
1.1854902332
1.1856442484
1.1856376783
1.1853479096
1.1846147501
1.1832713837
1.1813039125
1.1793304242
1.1811261122
1.0887576746
1.0926417258
1.0938881014
1.0958808416
1.0989906387
1.1035679905
1.1097737258
1.1175532108
1.1266690572
1.1367671298
1.1474568824
1.1583768522
1.1692339117
1.1798201333
1.1900081702
1.1997339493
1.2089742998
1.2177214211
1.2259611868
1.2336605665
1.2407648652
1.2472043998
1.2529084073
1.2578214785
1.2619167790
1.2652038371
1.2677303832
1.2695773439
1.2708495386
1.2716649670
1.2721429497
1.2723928642
1.2725053125
1.2725448777
1.2703219968
1.1863738087
1.1846296160
1.1845693565
1.1844554475
1.1843009746
1.1841231580
1.1839412175
1.1837746803
1.1836401220
1.1835486857
1.1835042959
1.1835003167
1.1835165230
1.1835155425
1.1834361784
1.1831840317
1.1826169379
1.1815263460
1.1796404705
1.1767732542
1.1735429262
1.1752982263
1.0800299933
1.0839942292
1.0856490413
1.0879855192
1.0916313537
1.0970171461
1.1042799672
1.1132793229
1.1236644004
1.1349732468
1.1467344220
1.1585375241
1.1700675582
1.1811143798
1.1915632671
1.2013749344
1.2105612028
1.2191579649
1.2272003072
1.2347047807
1.2416611098
1.2480331829
1.2537686687
1.2588145975
1.2631324606
1.2667098375
1.2695674905
1.2717589107
1.2733641190
1.2744810183
1.2752140182
1.2756621764
1.2759096793
1.2760175847
1.2731047394
1.1860234847
1.1844955706
1.1844112910
1.1842492392
1.1840224269
1.1837480440
1.1834454538
1.1831347584
1.1828336140
1.1825549168
1.1823052914
1.1820816851
1.1818682256
1.1816322827
1.1813160807
1.1808234716
1.1799960436
1.1785705518
1.1761242604
1.1721173064
1.1667201521
1.1683831542
1.0682734950
1.0723703423
1.0754344726
1.0789569997
1.0839292878
1.0908358389
1.0997530442
1.1104175950
1.1223452461
1.1349747298
1.1477868478
1.1603666007
1.1724190050
1.1837629459
1.1943150301
1.2040682286
1.2130683637
1.2213892175
1.2291079759
1.2362854264
1.2429545026
1.2491164024
1.2547450292
1.2597995721
1.2642387647
1.2680340671
1.2711808667
1.2737026498
1.2756488886
1.2770898773
1.2781072195
1.2787824547
1.2791875677
1.2793761027
1.2757796549
1.1857543576
1.1844259861
1.1843184867
1.1841095989
1.1838116752
1.1834409533
1.1830156251
1.1825546025
1.1820742792
1.1815862603
1.1810960891
1.1805998223
1.1800812586
1.1795091418
1.1788303443
1.1779596755
1.1767593250
1.1749893642
1.1721933380
1.1674587555
1.1592494321
1.1607269156
1.0458636404
1.0503112298
1.0617652345
1.0696947410
1.0776541431
1.0870178629
1.0981150044
1.1106702621
1.1241209398
1.1378654281
1.1514069875
1.1643941418
1.1766047133
1.1879192957
1.1983007350
1.2077758935
1.2164174091
1.2243249653
1.2316042359
1.2383476801
1.2446222457
1.2504620591
1.2558679646
1.2608161250
1.2652694282
1.2691899020
1.2725521574
1.2753512619
1.2776047856
1.2793518983
1.2806467945
1.2815488159
1.2821137426
1.2823847456
1.2781594660
1.1855384160
1.1843817497
1.1842522421
1.1839985739
1.1836316703
1.1831655276
1.1826151487
1.1819951629
1.1813158664
1.1805798390
1.1797788833
1.1788867731
1.1778498171
1.1765720735
1.1748846853
1.1724897148
1.1688479943
1.1629352688
1.1526924950
1.1336896772
1.0956570960
1.0140541883
0.9195906604
0.9916735296
1.0903209268
1.0787715938
1.0768503061
1.0782461376
1.0833710968
1.0919639291
1.1033249329
1.1164850373
1.1304575234
1.1444556883
1.1579665703
1.1707046660
1.1825282847
1.1933798492
1.2032603255
1.2122166130
1.2203311342
1.2277112450
1.2344730176
1.2407237918
1.2465503174
1.2520092079
1.2571224189
1.2618819900
1.2662578066
1.2702077614
1.2736916939
1.2766815202
1.2791666312
1.2811570721
1.2826802240
1.2837729554
1.2844741900
1.2848160908
1.2800706529
1.1853553759
1.1843328388
1.1841845437
1.1838923885
1.1834655872
1.1829154837
1.1822533891
1.1814891512
1.1806266699
1.1796598639
1.1785688858
1.1773113114
1.1758109827
1.1739419663
1.1714971965
1.1681371216
1.1632994406
1.1560228915
1.1446043001
1.1258999368
1.0939369308
1.0386617678
0.9231907468
0.9950304400
1.0507906653
1.0598341062
1.0673874723
1.0746961290
1.0838017847
1.0953399700
1.1089312071
1.1236261122
1.1384188500
1.1526027166
1.1658339130
1.1780156020
1.1891578606
1.1992998148
1.2084929713
1.2168039585
1.2243178896
1.2311391224
1.2373815666
1.2431540574
1.2485499008
1.2536362450
1.2584467930
1.2629837699
1.2672226093
1.2711197151
1.2746259918
1.2776979248
1.2803050093
1.2824359029
1.2840977005
1.2853098618
1.2860980321
1.2864856045
1.2813800357
1.1851916106
1.1842581509
1.1840967288
1.1837774784
1.1833080725
1.1826975434
1.1819541434
1.1810840641
1.1800867702
1.1789508759
1.1776505463
1.1761366256
1.1743261172
1.1720884288
1.1692183568
1.1653954470
1.1601187966
1.1525861275
1.1414833249
1.1246167923
1.0983622142
1.0584600718
0.9852048278
1.0142908387
1.0460022798
1.0563900351
1.0651790718
1.0744094188
1.0856908686
1.0994255927
1.1149647439
1.1310681231
1.1465643972
1.1607913846
1.1735895438
1.1850752352
1.1954261905
1.2047851379
1.2132554006
1.2209212831
1.2278665188
1.2341866686
1.2399859424
1.2453654236
1.2504142332
1.2551986088
1.2597532044
1.2640818620
1.2681607472
1.2719447242
1.2753805368
1.2784180165
1.2810180972
1.2831601986
1.2848425873
1.2860770434
1.2868833275
1.2872809475
1.2820144131
1.1850358543
1.1841418695
1.1839747027
1.1836432828
1.1831540735
1.1825143648
1.1817302419
1.1808055622
1.1797373118
1.1785116527
1.1771008198
1.1754546512
1.1734911710
1.1710853571
1.1680461862
1.1640844655
1.1587651637
1.1514210646
1.1410168678
1.1259440152
1.1037872764
1.0724005221
1.0216303120
1.0287459176
1.0457075337
1.0552998313
1.0645823948
1.0750175593
1.0878127867
1.1031821654
1.1202397367
1.1374600105
1.1534870228
1.1676659932
1.1800017218
1.1908125331
1.2004288822
1.2090851610
1.2169296762
1.2240610755
1.2305600521
1.2365114914
1.2420064949
1.2471327407
1.2519670072
1.2565645416
1.2609503240
1.2651204344
1.2690456059
1.2726778076
1.2759636690
1.2788553441
1.2813177416
1.2833351770
1.2849109345
1.2860612300
1.2868093697
1.2871773167
1.2819672033
1.1848801804
1.1839747193
1.1838098847
1.1834826114
1.1829984660
1.1823634951
1.1815823326
1.1806574392
1.1795845555
1.1783489623
1.1769228351
1.1752571616
1.1732731925
1.1708530109
1.1678192733
1.1639083453
1.1587330345
1.1517155541
1.1419908948
1.1282811224
1.1087988568
1.0822926519
1.0437091681
1.0397479023
1.0476718711
1.0555184612
1.0646580878
1.0756847740
1.0893809195
1.1057803913
1.1238216296
1.1417664845
1.1581124133
1.1722061960
1.1841649193
1.1944541001
1.2035238996
1.2116761930
1.2190925717
1.2258823923
1.2321236086
1.2378912821
1.2432626889
1.2483087822
1.2530877500
1.2576353669
1.2619577521
1.2660351877
1.2698280081
1.2732848421
1.2763567026
1.2790069677
1.2812165273
1.2829879282
1.2843424702
1.2853122005
1.2859328869
1.2862349826
1.2812915764
1.1847242078
1.1837580899
1.1836035812
1.1832965826
1.1828420104
1.1822450375
1.1815093252
1.1806364613
1.1796215063
1.1784494008
1.1770925835
1.1755031090
1.1736045189
1.1712832831
1.1683697963
1.1646139492
1.1596525526
1.1529507261
1.1437218857
1.1308345201
1.1127690701
1.0885877281
1.0555541260
1.0467371323
1.0501094860
1.0565066356
1.0652334072
1.0763393327
1.0903126791
1.1070578927
1.1254242801
1.1435805607
1.1599608024
1.1739150713
1.1856181570
1.1956043879
1.2043856940
1.2122984546
1.2195415455
1.2262300049
1.2324393750
1.2382362459