<VTKFile type="UnstructuredGrid" version="0.1">
	<UnstructuredGrid>
		<Piece NumberOfPoints="13548" NumberOfCells="3387">
			<CellData>
				<DataArray type="Int32" Name="ghost" NumberOfComponents="1" Format="ascii">
1
1
1
1
1
1
1
1
1
1
1
1
1
1
1
1
1
1
1
1
1
1
1
1
1
1
1
1
1
1
1
1
1
1
1
1
1
1
1
1
1
1
1
1
1
1
1
1
1
1
1
1
1
1
1
1
1
1
0
0
0
0
0
0
0
0
0
0
0
0
0
0
0
0
0
0
0
0
1
1
0
0
0
0
0
0
0
0
0
0
0
0
0
0
0
0
0
0
0
0
0
0
0
0
0
0
0
0
0
0
0
0
0
1
1
0
0
0
0
0
0
0
0
0
0
0
0
0
0
0
0
0
0
0
0
1
1
0
0
0
0
0
0
0
0
0
0
0
0
0
0
0
0
0
0
0
0
0
0
0
0
0
0
0
0
0
0
0
0
0
1
1
0
0
0
0
0
0
0
0
0
0
0
0
0
0
0
0
0
0
0
0
1
1
0
0
0
0
0
0
0
0
0
0
0
0
0
0
0
0
0
0
0
0
0
0
0
0
0
0
0
0
0
0
0
0
0
1
1
0
0
0
0
0
0
0
0
0
0
0
0
0
0
0
0
0
0
0
0
1
1
0
0
0
0
0
0
0
0
0
0
0
0
0
0
0
0
0
0
0
0
0
0
0
0
0
0
0
0
0
0
0
0
0
1
1
0
0
0
0
0
0
0
0
0
0
0
0
0
0
0
0
0
0
0
0
1
1
0
0
0
0
0
0
0
0
0
0
0
0
0
0
0
0
0
0
0
0
0
0
0
0
0
0
0
0
0
0
0
0
0
1
1
0
0
0
0
0
0
0
0
0
0
0
0
0
0
0
0
0
0
0
0
1
1
0
0
0
0
0
0
0
0
0
0
0
0
0
0
0
0
0
0
0
0
0
0
0
0
0
0
0
0
0
0
0
0
0
1
1
0
0
0
0
0
0
0
0
0
0
0
0
0
0
0
0
0
0
0
0
1
1
0
0
0
0
0
0
0
0
0
0
0
0
0
0
0
0
0
0
0
0
0
0
0
0
0
0
0
0
0
0
0
0
0
1
1
0
0
0
0
0
0
0
0
0
0
0
0
0
0
0
0
0
0
0
0
1
1
0
0
0
0
0
0
0
0
0
0
0
0
0
0
0
0
0
0
0
0
0
0
0
0
0
0
0
0
0
0
0
0
0
1
1
0
0
0
0
0
0
0
0
0
0
0
0
0
0
0
0
0
0
0
0
1
1
0
0
0
0
0
0
0
0
0
0
0
0
0
0
0
0
0
0
0
0
0
0
0
0
0
0
0
0
0
0
0
0
0
1
1
0
0
0
0
0
0
0
0
0
0
0
0
0
0
0
0
0
0
0
0
1
1
0
0
0
0
0
0
0
0
0
0
0
0
0
0
0
0
0
0
0
0
0
0
0
0
0
0
0
0
0
0
0
0
0
1
1
0
0
0
0
0
0
0
0
0
0
0
0
0
0
0
0
0
0
0
0
1
1
0
0
0
0
0
0
0
0
0
0
0
0
0
0
0
0
0
0
0
0
0
0
0
0
0
0
0
0
0
0
0
0
0
1
1
0
0
0
0
0
0
0
0
0
0
0
0
0
0
0
0
0
0
0
0
1
1
0
0
0
0
0
0
0
0
0
0
0
0
0
0
0
0
0
0
0
0
0
0
0
0
0
0
0
0
0
0
0
0
0
1
1
0
0
0
0
0
0
0
0
0
0
0
0
0
0
0
0
0
0
0
0
1
1
0
0
0
0
0
0
0
0
0
0
0
0
0
0
0
0
0
0
0
0
0
0
0
0
0
0
0
0
0
0
0
0
0
1
1
0
0
0
0
0
0
0
0
0
0
0
0
0
0
0
0
0
0
0
0
1
1
0
0
0
0
0
0
0
0
0
0
0
0
0
0
0
0
0
0
0
0
0
0
0
0
0
0
0
0
0
0
0
0
0
1
1
0
0
0
0
0
0
0
0
0
0
0
0
0
0
0
0
0
0
0
0
1
1
0
0
0
0
0
0
0
0
0
0
0
0
0
0
0
0
0
0
0
0
0
0
0
0
0
0
0
0
0
0
0
0
0
1
1
0
0
0
0
0
0
0
0
0
0
0
0
0
0
0
0
0
0
0
0
1
1
0
0
0
0
0
0
0
0
0
0
0
0
0
0
0
0
0
0
0
0
0
0
0
0
0
0
0
0
0
0
0
0
0
1
1
0
0
0
0
0
0
0
0
0
0
0
0
0
0
0
0
0
0
0
0
1
1
0
0
0
0
0
0
0
0
0
0
0
0
0
0
0
0
0
0
0
0
0
0
0
0
0
0
0
0
0
0
0
0
0
1
1
0
0
0
0
0
0
0
0
0
0
0
0
0
0
0
0
0
0
0
0
1
1
0
0
0
0
0
0
0
0
0
0
0
0
0
0
0
0
0
0
0
0
0
0
0
0
0
0
0
0
0
0
0
0
0
1
1
0
0
0
0
0
0
0
0
0
0
0
0
0
0
0
0
0
0
0
0
1
1
0
0
0
0
0
0
0
0
0
0
0
0
0
0
0
0
0
0
0
0
0
0
0
0
0
0
0
0
0
0
0
0
0
1
1
0
0
0
0
0
0
0
0
0
0
0
0
0
0
0
0
0
0
0
0
1
1
0
0
0
0
0
0
0
0
0
0
0
0
0
0
0
0
0
0
0
0
0
0
0
0
0
0
0
0
0
0
0
0
0
1
1
0
0
0
0
0
0
0
0
0
0
0
0
0
0
0
0
0
0
0
0
1
1
0
0
0
0
0
0
0
0
0
0
0
0
0
0
0
0
0
0
0
0
0
0
0
0
0
0
0
0
0
0
0
0
0
1
1
0
0
0
0
0
0
0
0
0
0
0
0
0
0
0
0
0
0
0
0
1
1
0
0
0
0
0
0
0
0
0
0
0
0
0
0
0
0
0
0
0
0
0
0
0
0
0
0
0
0
0
0
0
0
0
1
1
0
0
0
0
0
0
0
0
0
0
0
0
0
0
0
0
0
0
0
0
1
1
0
0
0
0
0
0
0
0
0
0
0
0
0
0
0
0
0
0
0
0
0
0
0
0
0
0
0
0
0
0
0
0
0
1
1
0
0
0
0
0
0
0
0
0
0
0
0
0
0
0
0
0
0
0
0
1
1
0
0
0
0
0
0
0
0
0
0
0
0
0
0
0
0
0
0
0
0
0
0
0
0
0
0
0
0
0
0
0
0
0
1
1
0
0
0
0
0
0
0
0
0
0
0
0
0
0
0
0
0
0
0
0
0
1
1
0
0
0
0
0
0
0
0
0
0
0
0
0
0
0
0
0
0
0
0
0
0
0
0
0
0
0
0
0
0
0
0
0
0
1
1
0
0
0
0
0
0
0
0
0
0
0
0
0
0
0
0
0
0
0
0
0
0
0
0
0
0
0
0
0
0
0
0
0
0
0
0
0
0
0
0
0
0
0
0
0
0
0
0
0
0
0
0
0
0
0
0
0
1
1
0
0
0
0
0
0
0
0
0
0
0
0
0
0
0
0
0
0
0
0
0
0
0
0
0
0
0
0
0
0
0
0
0
0
0
0
0
0
0
0
0
0
0
0
0
0
0
0
0
0
0
0
0
0
0
0
0
1
1
0
0
0
0
0
0
0
0
0
0
0
0
0
0
0
0
0
0
0
0
0
0
0
0
0
0
0
0
0
0
0
0
0
0
0
0
0
0
0
0
0
0
0
0
0
0
0
0
0
0
0
0
0
0
0
0
0
1
1
0
0
0
0
0
0
0
0
0
0
0
0
0
0
0
0
0
0
0
0
0
0
0
0
0
0
0
0
0
0
0
0
0
0
0
0
0
0
0
0
0
0
0
0
0
0
0
0
0
0
0
0
0
0
0
0
0
1
1
0
0
0
0
0
0
0
0
0
0
0
0
0
0
0
0
0
0
0
0
0
0
0
0
0
0
0
0
0
0
0
0
0
0
0
0
0
0
0
0
0
0
0
0
0
0
0
0
0
0
0
0
0
0
0
0
0
1
1
0
0
0
0
0
0
0
0
0
0
0
0
0
0
0
0
0
0
0
0
0
0
0
0
0
0
0
0
0
0
0
0
0
0
0
0
0
0
0
0
0
0
0
0
0
0
0
0
0
0
0
0
0
0
0
0
0
1
1
0
0
0
0
0
0
0
0
0
0
0
0
0
0
0
0
0
0
0
0
0
0
0
0
0
0
0
0
0
0
0
0
0
0
0
0
0
0
0
0
0
0
0
0
0
0
0
0
0
0
0
0
0
0
0
0
0
1
1
0
0
0
0
0
0
0
0
0
0
0
0
0
0
0
0
0
0
0
0
0
0
0
0
0
0
0
0
0
0
0
0
0
0
0
0
0
0
0
0
0
0
0
0
0
0
0
0
0
0
0
0
0
0
0
0
0
1
1
0
0
0
0
0
0
0
0
0
0
0
0
0
0
0
0
0
0
0
0
0
0
0
0
0
0
0
0
0
0
0
0
0
0
0
0
0
0
0
0
0
0
0
0
0
0
0
0
0
0
0
0
0
0
0
0
0
1
1
0
0
0
0
0
0
0
0
0
0
0
0
0
0
0
0
0
0
0
0
0
0
0
0
0
0
0
0
0
0
0
0
0
0
0
0
0
0
0
0
0
0
0
0
0
0
0
0
0
0
0
0
0
0
0
0
0
1
1
0
0
0
0
0
0
0
0
0
0
0
0
0
0
0
0
0
0
0
0
0
1
1
0
0
0
0
0
0
0
0
0
0
0
0
0
0
0
0
0
0
0
0
0
0
0
0
0
0
0
0
0
0
0
0
0
0
1
1
0
0
0
0
0
0
0
0
0
0
0
0
0
0
0
0
0
0
0
0
1
1
0
0
0
0
0
0
0
0
0
0
0
0
0
0
0
0
0
0
0
0
0
0
0
0
0
0
0
0
0
0
0
0
0
1
1
0
0
0
0
0
0
0
0
0
0
0
0
0
0
0
0
0
0
0
0
1
1
0
0
0
0
0
0
0
0
0
0
0
0
0
0
0
0
0
0
0
0
0
0
0
0
0
0
0
0
0
0
0
0
0
1
1
0
0
0
0
0
0
0
0
0
0
0
0
0
0
0
0
0
0
0
0
1
1
0
0
0
0
0
0
0
0
0
0
0
0
0
0
0
0
0
0
0
0
0
0
0
0
0
0
0
0
0
0
0
0
0
1
1
0
0
0
0
0
0
0
0
0
0
0
0
0
0
0
0
0
0
0
0
1
1
0
0
0
0
0
0
0
0
0
0
0
0
0
0
0
0
0
0
0
0
0
0
0
0
0
0
0
0
0
0
0
0
0
1
1
0
0
0
0
0
0
0
0
0
0
0
0
0
0
0
0
0
0
0
0
1
1
0
0
0
0
0
0
0
0
0
0
0
0
0
0
0
0
0
0
0
0
0
0
0
0
0
0
0
0
0
0
0
0
0
1
1
0
0
0
0
0
0
0
0
0
0
0
0
0
0
0
0
0
0
0
0
1
1
0
0
0
0
0
0
0
0
0
0
0
0
0
0
0
0
0
0
0
0
0
0
0
0
0
0
0
0
0
0
0
0
0
1
1
0
0
0
0
0
0
0
0
0
0
0
0
0
0
0
0
0
0
0
0
1
1
0
0
0
0
0
0
0
0
0
0
0
0
0
0
0
0
0
0
0
0
0
0
0
0
0
0
0
0
0
0
0
0
0
1
1
0
0
0
0
0
0
0
0
0
0
0
0
0
0
0
0
0
0
0
0
1
1
0
0
0
0
0
0
0
0
0
0
0
0
0
0
0
0
0
0
0
0
0
0
0
0
0
0
0
0
0
0
0
0
0
1
1
0
0
0
0
0
0
0
0
0
0
0
0
0
0
0
0
0
0
0
0
1
1
0
0
0
0
0
0
0
0
0
0
0
0
0
0
0
0
0
0
0
0
0
0
0
0
0
0
0
0
0
0
0
0
0
1
1
0
0
0
0
0
0
0
0
0
0
0
0
0
0
0
0
0
0
0
0
1
1
0
0
0
0
0
0
0
0
0
0
0
0
0
0
0
0
0
0
0
0
0
0
0
0
0
0
0
0
0
0
0
0
0
1
1
0
0
0
0
0
0
0
0
0
0
0
0
0
0
0
0
0
0
0
0
1
1
0
0
0
0
0
0
0
0
0
0
0
0
0
0
0
0
0
0
0
0
0
0
0
0
0
0
0
0
0
0
0
0
0
1
1
0
0
0
0
0
0
0
0
0
0
0
0
0
0
0
0
0
0
0
0
1
1
0
0
0
0
0
0
0
0
0
0
0
0
0
0
0
0
0
0
0
0
0
0
0
0
0
0
0
0
0
0
0
0
0
1
1
0
0
0
0
0
0
0
0
0
0
0
0
0
0
0
0
0
0
0
0
1
1
0
0
0
0
0
0
0
0
0
0
0
0
0
0
0
0
0
0
0
0
0
0
0
0
0
0
0
0
0
0
0
0
0
1
1
0
0
0
0
0
0
0
0
0
0
0
0
0
0
0
0
0
0
0
0
1
1
0
0
0
0
0
0
0
0
0
0
0
0
0
0
0
0
0
0
0
0
0
0
0
0
0
0
0
0
0
0
0
0
0
1
1
0
0
0
0
0
0
0
0
0
0
0
0
0
0
0
0
0
0
0
0
1
1
0
0
0
0
0
0
0
0
0
0
0
0
0
0
0
0
0
0
0
0
0
0
0
0
0
0
0
0
0
0
0
0
0
1
1
0
0
0
0
0
0
0
0
0
0
0
0
0
0
0
0
0
0
0
0
1
1
0
0
0
0
0
0
0
0
0
0
0
0
0
0
0
0
0
0
0
0
0
0
0
0
0
0
0
0
0
0
0
0
0
1
1
0
0
0
0
0
0
0
0
0
0
0
0
0
0
0
0
0
0
0
0
1
1
0
0
0
0
0
0
0
0
0
0
0
0
0
0
0
0
0
0
0
0
0
0
0
0
0
0
0
0
0
0
0
0
0
1
1
0
0
0
0
0
0
0
0
0
0
0
0
0
0
0
0
0
0
0
0
1
1
0
0
0
0
0
0
0
0
0
0
0
0
0
0
0
0
0
0
0
0
0
0
0
0
0
0
0
0
0
0
0
0
0
1
1
0
0
0
0
0
0
0
0
0
0
0
0
0
0
0
0
0
0
0
0
1
1
0
0
0
0
0
0
0
0
0
0
0
0
0
0
0
0
0
0
0
0
0
0
0
0
0
0
0
0
0
0
0
0
0
1
1
0
0
0
0
0
0
0
0
0
0
0
0
0
0
0
0
0
0
0
0
1
1
0
0
0
0
0
0
0
0
0
0
0
0
0
0
0
0
0
0
0
0
0
0
0
0
0
0
0
0
0
0
0
0
0
1
1
0
0
0
0
0
0
0
0
0
0
0
0
0
0
0
0
0
0
0
0
1
1
0
0
0
0
0
0
0
0
0
0
0
0
0
0
0
0
0
0
0
0
0
0
0
0
0
0
0
0
0
0
0
0
0
1
1
1
1
1
1
1
1
1
1
1
1
1
1
1
1
1
1
1
1
1
1
1
1
1
1
1
1
1
1
1
1
1
1
1
1
1
1
1
1
1
1
1
1
1
1
1
1
1
1
1
1
1
1
1
1
1
1
				</DataArray>
				<DataArray type="Float64" Name="h" NumberOfComponents="1" Format="ascii">
1.3042969221
1.3043177774
1.3044934445
1.3048602013
1.3054465762
1.3062906246
1.3074342294
1.3089159843
1.3107639621
1.3129879888
1.3155730848
1.3184753721
1.3216202745
1.3249047736
1.3282034340
1.3313768541
1.3342827676
1.3367870609
1.3387730576
1.3401492030
1.3408530735
1.3408530735
1.1479132439
1.1476841983
1.1477688120
1.1479230238
1.1481222133
1.1483378711
1.1485425816
1.1487132500
1.1488308648
1.1488798085
1.1488474495
1.1487223354
1.1484931937
1.1481484800
1.1476745372
1.1470541978
1.1462652894
1.1452774176
1.1440486700
1.1425216251
1.1406178840
1.1382334947
1.1352360000
1.1314656942
1.1267471293
1.1209148864
1.1138592700
1.1055934287
1.0963285370
1.0865346816
1.0769514962
1.0685136740
1.0621949827
1.0588060283
1.0588060283
1.3043177774
1.3044521956
1.3045863831
1.3048701857
1.3053322213
1.3060108569
1.3069486420
1.3081852336
1.3097501810
1.3116552658
1.3138881026
1.3164084873
1.3191473076
1.3220095778
1.3248811116
1.3276371814
1.3301530964
1.3323139362
1.3340220040
1.3352024207
1.3358051346
1.3408530735
1.1476841983
1.1474088445
1.1475002694
1.1476678794
1.1478866393
1.1481275231
1.1483626028
1.1485683796
1.1487256264
1.1488187405
1.1488353704
1.1487646444
1.1485962214
1.1483199383
1.1479241157
1.1473943656
1.1467124112
1.1458532739
1.1447824713
1.1434526186
1.1417984953
1.1397326991
1.1371422911
1.1338882990
1.1298133589
1.1247611760
1.1186137136
1.1113500027
1.1031182059
1.0943039197
1.0855607747
1.0777613700
1.0718566749
1.0686667112
1.0588060283
1.3049369668
1.3049944079
1.3051299207
1.3054150860
1.3058761452
1.3065483439
1.3074708322
1.3086801029
1.3102032517
1.3120507199
1.3142101632
1.3166429033
1.3192827888
1.3220389962
1.3248023276
1.3274534177
1.3298728310
1.3319503964
1.3335924008
1.3347270300
1.3353063176
1.3403142116
1.1472047765
1.1469648600
1.1470608879
1.1472364626
1.1474646284
1.1477144060
1.1479562583
1.1481655101
1.1483221005
1.1484097894
1.1484156470
1.1483281684
1.1481362427
1.1478287421
1.1473927872
1.1468125566
1.1460681561
1.1451329552
1.1439711088
1.1425347280
1.1407599019
1.1385638127
1.1358433490
1.1324769673
1.1283344571
1.1232969551
1.1172910806
1.1103385993
1.1026122934
1.0944841609
1.0865408146
1.0795361264
1.0742752798
1.0714462430
1.0616966119
1.3061567084
1.3060667843
1.3062047179
1.3064922889
1.3069512261
1.3076108059
1.3085036116
1.3096599422
1.3111019920
1.3128374068
1.3148537206
1.3171150581
1.3195609328
1.3221086146
1.3246586949
1.3271024081
1.3293307770
1.3312431521
1.3327538756
1.3337973863
1.3343300109
1.3392600205
1.1462094320
1.1460421356
1.1461475042
1.1463391961
1.1465863137
1.1468538975
1.1471091559
1.1473250512
1.1474798663
1.1475561121
1.1475397472
1.1474180700
1.1471785343
1.1468082360
1.1462921195
1.1456118188
1.1447446661
1.1436613720
1.1423242437
1.1406855201
1.1386852722
1.1362512678
1.1333011103
1.1297480315
1.1255136990
1.1205479349
1.1148558969
1.1085305569
1.1017806370
1.0949459968
1.0884891158
1.0829509021
1.0788752182
1.0767104711
1.0672026951
1.3079422742
1.3076467043
1.3077877124
1.3080781008
1.3085333857
1.3091745342
1.3100248450
1.3111056728
1.3124319169
1.3140067972
1.3158172091
1.3178308955
1.3199952459
1.3222390904
1.3244772272
1.3266164579
1.3285633374
1.3302315256
1.3315476310
1.3324557518
1.3329189361
1.3377372486
1.1446272656
1.1445725669
1.1446923098
1.1449087007
1.1451846842
1.1454791599
1.1457543761
1.1459797409
1.1461310871
1.1461891273
1.1461382758
1.1459642239
1.1456525520
1.1451880974
1.1445531245
1.1437262797
1.1426818935
1.1413882713
1.1398070305
1.1378931924
1.1355957341
1.1328610703
1.1296394192
1.1258946866
1.1216193162
1.1168510403
1.1116887457
1.1063025212
1.1009292156
1.0958526855
1.0913709938
1.0877566206
1.0852263651
1.0839259967
1.0748172628
1.3102464128
1.3097027532
1.3098468480
1.3101394993
1.3105888701
1.3112059492
1.3120026608
1.3129891091
1.3141706709
1.3155443706
1.3170955395
1.3187957580
1.3206018155
1.3224568892
1.3242938092
1.3260394713
1.3276207882
1.3289704744
1.3300317543
1.3307620503
1.3311338416
1.3358118609
1.1423595308
1.1424597693
1.1425994527
1.1428499415
1.1431655268
1.1434966319
1.1437987788
1.1440366451
1.1441828853
1.1442159777
1.1441185352
1.1438744942
1.1434675023
1.1428801934
1.1420923944
1.1410803381
1.1398164757
1.1382686915
1.1364011680
1.1341766888
1.1315602478
1.1285262766
1.1250687541
1.1212137228
1.1170335174
1.1126570288
1.1082710813
1.1041070404
1.1004066163
1.0973725707
1.0951170928
1.0936285775
1.0927856140
1.0924230212
1.0838847574
1.3130135933
1.3121968388
1.3123432375
1.3126363359
1.3130763964
1.3136635058
1.3143968734
1.3152736507
1.3162878006
1.3174283799
1.3186778872
1.3200113331
1.3213956231
1.3227902047
1.3241489622
1.3254227691
1.3265633020
1.3275269052
1.3282778306
1.3287907200
1.3290504874
1.3335652208
1.1392904512
1.1395876535
1.1397537171
1.1400491111
1.1404166317
1.1407957122
1.1411333590
1.1413884098
1.1415297361
1.1415333280
1.1413800080
1.1410521962
1.1405320906
1.1398009173
1.1388372929
1.1376168774
1.1361129309
1.1342967237
1.1321401805
1.1296205080
1.1267266595
1.1234695115
1.1198940905
1.1160921936
1.1122129087
1.1084638232
1.1050973886
1.1023769577
1.1005193245
1.0996245492
1.0996138741
1.1002082344
1.1009845052
1.1015104273
1.0937026707
1.3161847448
1.3150868937
1.3152339360
1.3155242045
1.3159500610
1.3165004935
1.3171614506
1.3179161587
1.3187458025
1.3196299098
1.3205467089
1.3214736960
1.3223877821
1.3232656225
1.3240841862
1.3248213415
1.3254572938
1.3259762238
1.3263677261
1.3266276911
1.3267567284
1.3310903646
1.1353030482
1.1358334515
1.1360336649
1.1363869998
1.1368215368
1.1372630826
1.1376484066
1.1379295492
1.1380711880
1.1380468206
1.1378358372
1.1374198629
1.1367807812
1.1359000530
1.1347573635
1.1333308736
1.1315986798
1.1295405149
1.1271420999
1.1244017144
1.1213386437
1.1180047767
1.1144968129
1.1109665599
1.1076257626
1.1047377898
1.1025908340
1.1014477466
1.1014718950
1.1026447602
1.1047039070
1.1071423694
1.1093060503
1.1105768500
1.1036207707
1.3197001353
1.3183282526
1.3184733940
1.3187560151
1.3191610211
1.3196667359
1.3202460628
1.3208681208
1.3215006444
1.3221125173
1.3226763421
1.3231708173
1.3235820163
1.3239037293
1.3241369128
1.3242883701
1.3243697070
1.3243965240
1.3243877581
1.3243645587
1.3243466905
1.3284855543
1.1303031393
1.1310887237
1.1313327989
1.1317604461
1.1322814278
1.1328052773
1.1332570079
1.1335811541
1.1337380329
1.1336989163
1.1334424694
1.1329507140
1.1322069549
1.1311952487
1.1298994108
1.1283039135
1.1263962250
1.1241696167
1.1216287616
1.1187974283
1.1157276576
1.1125111510
1.1092897835
1.1062623328
1.1036833686
1.1018465302
1.1010468617
1.1015177650
1.1033452761
1.1063822979
1.1101996342
1.1141172620
1.1173392683
1.1191585298
1.1131180787
1.3235008135
1.3218742518
1.3220141462
1.3222828501
1.3226585704
1.3231098919
1.3235975455
1.3240771356
1.3245030604
1.3248330923
1.3250332026
1.3250819354
1.3249731496
1.3247167666
1.3243374524
1.3238716330
1.3233640384
1.3228643595
1.3224242915
1.3220940548
1.3219161660
1.3258493180
1.1242486665
1.1252866983
1.1255870205
1.1261099832
1.1267430685
1.1273770472
1.1279240172
1.1283206141
1.1285228445
1.1285001910
1.1282314925
1.1277006013
1.1268942553
1.1258017135
1.1244140772
1.1227257059
1.1207371864
1.1184587951
1.1159166405
1.1131605558
1.1102729342
1.1073789053
1.1046545908
1.1023303573
1.1006844969
1.1000191018
1.1006124484
1.1026446683
1.1061052587
1.1107146478
1.1159027614
1.1208803608
1.1248016214
1.1269615666
1.1218393042
1.3275299165
1.3256772849
1.3258079457
1.3260552620
1.3263916868
1.3267773243
1.3271621183
1.3274894350
1.3277012408
1.3277444962
1.3275781036
1.3271793009
1.3265480850
1.3257087531
1.3247082666
1.3236120105
1.3224981908
1.3214520562
1.3205606124
1.3199065791
1.3195589428
1.3232767390
1.1171768017
1.1184301915
1.1188025437
1.1194476479
1.1202264240
1.1210087577
1.1216931744
1.1222083120
1.1225059597
1.1225541267
1.1223325291
1.1218280392
1.1210325037
1.1199424671
1.1185586182
1.1168874273
1.1149443428
1.1127573745
1.1103731467
1.1078643989
1.1053380528
1.1029441018
1.1008819873
1.0994009633
1.0987888761
1.0993402033
1.1012977598
1.1047683590
1.1096302389
1.1154749004
1.1216259383
1.1272512118
1.1315363347
1.1338492867
1.1295947799
1.3317318846
1.3296882939
1.3298053127
1.3300229520
1.3303089357
1.3306163353
1.3308860438
1.3310510054
1.3310423621
1.3307973369
1.3302680193
1.3294296176
1.3282866235
1.3268754492
1.3252629470
1.3235414439
1.3218214554
1.3202238057
1.3188722417
1.3178848880
1.3173611169
1.3208540187
1.1092211303
1.1106137648
1.1110779793
1.1118787155
1.1128457260
1.1138264524
1.1147057516
1.1154042914
1.1158694315
1.1160674305
1.1159788279
1.1155938206
1.1149099900
1.1139319561
1.1126706655
1.1111448842
1.1093842421
1.1074325553
1.1053535136
1.1032377526
1.1012104053
1.0994392197
1.0981395935
1.0975720752
1.0980252511
1.0997740555
1.1030096763
1.1077481668
1.1137473770
1.1204824313
1.1272119135
1.1331225146
1.1374931780
1.1398092948
1.1363348024
1.3360510972
1.3338559608
1.3339547686
1.3341341098
1.3343580117
1.3345740370
1.3347159656
1.3347085052
1.3344741300
1.3339420784
1.3330585807
1.3317966466
1.3301638462
1.3282062026
1.3260072799
1.3236830770
1.3213736844
1.3192338925
1.3174242874
1.3161006974
1.3153972142
1.3186550889
1.1006047267
1.1020260559
1.1026064786
1.1036031186
1.1048095843
1.1060500604
1.1071961647
1.1081604452
1.1088848459
1.1093324687
1.1094833144
1.1093297917
1.1088743191
1.1081287328
1.1071131276
1.1058569086
1.1044014681
1.1028031572
1.1011387292
1.0995123737
1.0980632998
1.0969735636
1.0964717355
1.0968264966
1.0983214678
1.1012014438
1.1055906267
1.1114000077
1.1182654457
1.1255674350
1.1325436290
1.1384504177
1.1426989824
1.1449116053
1.1421092183
1.3404316299
1.3381270591
1.3382032102
1.3383358518
1.3384863139
1.3385981721
1.3386001057
1.3384109730
1.3379470891
1.3371319618
1.3359075048
1.3342449183
1.3321537949
1.3296872502
1.3269418612
1.3240529681
1.3211859959
1.3185263791
1.3162701440
1.3146124866
1.3137273747
1.3167394318
1.0916000554
1.0929204190
1.0936461991
1.0948850249
1.0963890002
1.0979592540
1.0994550463
1.1007801106
1.1018687525
1.1026779639
1.1031842310
1.1033794952
1.1032686380
1.1028684989
1.1022060452
1.1013188145
1.1002572032
1.0990872239
1.0978960464
1.0967994650
1.0959499134
1.0955440074
1.0958240189
1.0970656587
1.0995422634
1.1034573723
1.1088537279
1.1155279091
1.1230010196
1.1305878880
1.1375469680
1.1432403776
1.1472287336
1.1492713323
1.1470276806
1.3448159432
1.3424456697
1.3424951328
1.3425734716
1.3426402669
1.3426365764
1.3424879698
1.3421098834
1.3414151268
1.3403240018
1.3387760382
1.3367414645
1.3342312235
1.3313031516
1.3280628755
1.3246599494
1.3212795590
1.3181327585
1.3154479957
1.3134608696
1.3123918606
1.3151472342
1.0824648107
1.0835579357
1.0844637104
1.0859960831
1.0878600675
1.0898354024
1.0917702520
1.0935579091
1.0951212052
1.0964063318
1.0973817326
1.0980349600
1.0983700895
1.0984062224
1.0981748074
1.0977193942
1.0970976045
1.0963838817
1.0956754394
1.0951004427
1.0948264725
1.0950672386
1.0960804284
1.0981474314
1.1015246987
1.1063626830
1.1126105215
1.1199477583
1.1277964596
1.1354382708
1.1421872792
1.1475316072
1.1511811863
1.1530199447
1.1512268160
1.3491440818
1.3467527016
1.3467721514
1.3467899676
1.3467648735
1.3466367955
1.3463300837
1.3457590838
1.3448356949
1.3434795600
1.3416298976
1.3392570580
1.3363729691
1.3330380421
1.3293629486
1.3255058322
1.3216649900
1.3180704435
1.3149782784
1.3126648451
1.3114061846
1.3138951744
1.0733704246
1.0741357089
1.0752635175
1.0771457785
1.0794352945
1.0818943891
1.0843617010
1.0867170549
1.0888659887
1.0907374179
1.0922859777
1.0934902944
1.0943503306
1.0948851562
1.0951291930
1.0951311779
1.0949558563
1.0946868585
1.0944332038
1.0943381901
1.0945879598
1.0954164451
1.0970979030
1.0999165070
1.1041036663
1.1097452282
1.1166886485
1.1245012420
1.1325281533
1.1400496618
1.1464606795
1.1513815856
1.1546597456
1.1562849136
1.1548455613
1.3533546179
1.3509869081
1.3509740008
1.3509270115
1.3508046369
1.3505469499
1.3500788042
1.3493155684
1.3481705827
1.3465651644
1.3444401703
1.3417671867
1.3385589281
1.3348764688
1.3308316612
1.3265854288
1.3223417649
1.3183414857
1.3148614936
1.3122182325
1.3107559412
1.3129718284
1.0643444182
1.0647215243
1.0661252252
1.0684206373
1.0712055837
1.0742326539
1.0773325810
1.0803664666
1.0832141367
1.0857788444
1.0879947684
1.0898271606
1.0912693837
1.0923394679
1.0930748542
1.0935303371
1.0937794133
1.0939173140
1.0940680504
1.0943937786
1.0951028870
1.0964520588
1.0987318427
1.1022245550
1.1071275623
1.1134523487
1.1209418352
1.1290626184
1.1371083108
1.1443854915
1.1503848172
1.1548544495
1.1577607865
1.1591786613
1.1580106432
1.3573851210
1.3550851978
1.3550388098
1.3549251431
1.3547036256
1.3543156144
1.3536879606
1.3527388414
1.3513849868
1.3495512939
1.3471818416
1.3442503508
1.3407701163
1.3368011576
1.3324529175
1.3278833997
1.3232944521
1.3189280904
1.3150726760
1.3120822051
1.3103866364
1.3123278767
1.0552419379
1.0552144704
1.0569692273
1.0597541124
1.0631155685
1.0668095723
1.0706595372
1.0744986934
1.0781690484
1.0815376614
1.0845111729
1.0870379117
1.0891038481
1.0907269516
1.0919496928
1.0928355528
1.0934698556
1.0939629395
1.0944576516
1.0951388504
1.0962403507
1.0980429829
1.1008517802
1.1049413229
1.1104661902
1.1173566941
1.1252537508
1.1335395961
1.1414817364
1.1484344498
1.1539898656
1.1580124704
1.1605669117
1.1617932530
1.1608288792
1.3611734056
1.3589835176
1.3589039199
1.3587244542
1.3584059433
1.3578919869
1.3571126340
1.3559902359
1.3544463265
1.3524106940
1.3498316588
1.3466855532
1.3429858710
1.3387899779
1.3342016714
1.3293706993
1.3244888241
1.3197883057
1.3155561886
1.3121775840
1.3101913948
1.3118640475
1.0457450447
1.0453354768
1.0475563419
1.0509326997
1.0549777885
1.0594708444
1.0642244832
1.0690280513
1.0736685879
1.0779644780
1.0817883915
1.0850703999
1.0877910965
1.0899720748
1.0916651069
1.0929466682
1.0939180654
1.0947087931
1.0954844301
1.0964559534
1.0978849158
1.1000764942
1.1033472131
1.1079575835
1.1140119284
1.1213561276
1.1295362528
1.1378690213
1.1456186930
1.1522017118
1.1573102426
1.1609100051
1.1631435312
1.1641986667
1.1633839378
1.3646600582
1.3626189273
1.3625078485
1.3622663243
1.3618571145
1.3612267996
1.3603094791
1.3590325549
1.3573231590
1.3551165785
1.3523657009
1.3490493777
1.3451806039
1.3408125216
1.3360404210
1.3310009992
1.3258681902
1.3208522156
1.3162212260
1.3123769822
1.3099947983
1.3114149320
1.0353758028
1.0346367419
1.0375142960
1.0416334511
1.0465233217
1.0520113615
1.0578849877
1.0638626783
1.0696540839
1.0750166695
1.0797861796
1.0838776864
1.0872727625
1.0900037458
1.0921383808
1.0937718805
1.0950263109
1.0960543844
1.0970478592
1.0982464495
1.0999407386
1.1024593925
1.1061267234
1.1111831323
1.1176771799
1.1253705704
1.1337249830
1.1420106706
1.1495073048
1.1557014718
1.1603790422
1.1635907962
1.1655388336
1.1664443202
1.1657371412
1.3677903874
1.3659310719
1.3657915851
1.3654943653
1.3650045040
1.3642720506
1.3632356292
1.3618280531
1.3599822032
1.3576387435
1.3547547151
1.3513107562
1.3473182414
1.3428244290
1.3379135276
1.3327049583
1.3273474665
1.3220156492
1.3169345048
1.3124922291
1.3095238093
1.3107195552
1.0234928715
1.0224996585
1.0263722760
1.0314842195
1.0374895032
1.0442817810
1.0515855793
1.0590084121
1.0661598534
1.0727314955
1.0785285683
1.0834626732
1.0875287529
1.0907808015
1.0933112452
1.0952405491
1.0967162083
1.0979175555
1.0990649872
1.1004284178
1.1023276029
1.1051129234
1.1091124699
1.1145413144
1.1213889873
1.1293362658
1.1377726517
1.1459394105
1.1531454164
1.1589499738
1.1632234809
1.1660862269
1.1677843566
1.1685609137
1.1679291080
1.3705163553
1.3688637299
1.3686998880
1.3683552172
1.3677973745
1.3669801050
1.3658466621
1.3643351512
1.3623837735
1.3599378033
1.3569573711
1.3534235824
1.3493446378
1.3447600632
1.3397405207
1.3343843052
1.3288079202
1.3231353701
1.3175152414
1.3122624986
1.3083622372
1.3093753209
1.0092012474
1.0080488143
1.0135680441
1.0201434220
1.0277597623
1.0363526668
1.0455127568
1.0546960126
1.0634077234
1.0712910610
1.0781454303
1.0839025422
1.0885897055
1.0922962698
1.0951485583
1.0972980625
1.0989209974
1.1002250717
1.1014600688
1.1029259427
1.1049703949
1.1079628615
1.1122311375
1.1179608379
1.1250813659
1.1331980391
1.1416407818
1.1496366456
1.1565327146
1.1619594960
1.1658614695
1.1684144522
1.1698960603
1.1705625226
1.1699819157
1.3727985872
1.3713667298
1.3711828702
1.3707994701
1.3701868048
1.3693022732
1.3680935098
1.3665033777
1.3644745145
1.3619555785
1.3589083185
1.3553126859
1.3511720135
1.3465163268
1.3414005674
1.3358984633
1.3300874100
1.3240241516
1.3177356871
1.3113509784
1.3058760428
1.3067627333
0.9909060449
0.9897110391
0.9983437093
1.0074386911
1.0176238005
1.0287791662
1.0403037628
1.0515205852
1.0618870470
1.0710594352
1.0788818353
1.0853416996
1.0905211611
1.0945575309
1.0976172370
1.0998850602
1.1015658479
1.1028944166
1.1041480641
1.1056544415
1.1077863176
1.1109285893
1.1154047263
1.1213679219
1.1286882593
1.1369024826
1.1452928821
1.1530838565
1.1596654703
1.1647350725
1.1683006007
1.1705814024
1.1718767598
1.1724497539
1.1719025001
1.3746088656
1.3733986653
1.3731984185
1.3727834628
1.3721264828
1.3711881088
1.3699196283
1.3682675750
1.3661775463
1.3635997772
1.3604956885
1.3568422214
1.3526363895
1.3478980486
1.3426666433
1.3369919733
1.3309110405
1.3244011661
1.3173126858
1.3093832697
1.3011179607
1.3019501234
0.9642853620
0.9631959667
0.9794687363
0.9938552091
1.0083846821
1.0230616119
1.0373192416
1.0505665517
1.0623849185
1.0725603904
1.0810514238
1.0879374854
1.0933705596
1.0975387693
1.1006455785
1.1029035841
1.1045401364
1.1058112801
1.1070164475
1.1085060253
1.1106731638
1.1139137228
1.1185429825
1.1246799383
1.1321377718
1.1403923125
1.1486888755
1.1562575373
1.1625326423
1.1672722258
1.1705375585
1.1725815732
1.1737178453
1.1742119233
1.1736851316
1.3759345832
1.3749320007
1.3747174484
1.3742748002
1.3735785083
1.3725913421
1.3712665649
1.3695519960
1.3673929382
1.3647369481
1.3615398228
1.3577691531
1.3534085648
1.3484611356
1.3429474663
1.3368998514
1.3303440878
1.3232487421
1.3153991286
1.3060947830
1.2937706907
1.2946395623
0.9130059906
0.9122300035
0.9555392713
0.9823940033
1.0037675062
1.0223934695
1.0389157418
1.0534077687
1.0658576535
1.0763064243
1.0848684089
1.0917152952
1.0970514059
1.1010929855
1.1040589385
1.1061714862
1.1076659673
1.1088083211
1.1099111808
1.1113404224
1.1135035533
1.1168024810
1.1215410072
1.1278035413
1.1353502719
1.1436041798
1.1517827595
1.1591271817
1.1651147100
1.1695569184
1.1725591435
1.1743998772
1.1754016579
1.1758296760
1.1753143040
1.3767841915
1.3759597202
1.3757317064
1.3752625818
1.3745275600
1.3734898495
1.3721020373
1.3703092254
1.3680503550
1.3652609351
1.3618762635
1.3578299370
1.3530496934
1.3474460271
1.3408811717
1.3331071026
1.3236351119
1.3114462335
1.2943273608
1.2671926861
1.2173646975
1.1095625951
0.9575870534
0.9929018626
0.9858571291
0.9863755645
0.9988675988
1.0105883651
1.0234717430
1.0369075641
1.0500420199
1.0622206686
1.0730448337
1.0823310427
1.0900504007
1.0962777218
1.1011492196
1.1048322619
1.1075119717
1.1093887121
1.1106855013
1.1116646992
1.1126427197
1.1139939131
1.1161347073
1.1194691256
1.1242877185
1.1306418080
1.1382440778
1.1464730264
1.1545260309
1.1616583317
1.1673868128
1.1715690053
1.1743460344
1.1760156062
1.1769055445
1.1772790724
1.1767690432
1.3771879677
1.3764976711
1.3762575789
1.3757644787
1.3749938237
1.3739085071
1.3724595133
1.3705882789
1.3682267176
1.3652985437
1.3617210622
1.3574013637
1.3522295289
1.3460647840
1.3387019804
1.3298119199
1.3188300131
1.3047327238
1.2855885667
1.2575772081
1.2126900025
1.1341220046
0.9550199284
0.9906785625
0.9893645311
0.9942685900
1.0061272907
1.0186236886
1.0316496055
1.0446691090
1.0571014239
1.0684920256
1.0785616197
1.0871883329
1.0943598987
1.1001447853
1.1046624036
1.1080602386
1.1105057076
1.1121860642
1.1133165692
1.1141578894
1.1150302891
1.1163154965
1.1184372445
1.1218005256
1.1266833022
1.1331075188
1.1407453709
1.1489393879
1.1568731580
1.1638169351
1.1693225133
1.1732856749
1.1758759965
1.1774054308
1.1782046856
1.1785343173
1.1780258232
1.3771836540
1.3765719995
1.3763224226
1.3758104894
1.3750118463
1.3738891467
1.3723921641
1.3704596683
1.3680186330
1.3649848878
1.3612646100
1.3567500353
1.3513128675
1.3447922614
1.3369650592
1.3274963026
1.3158531358
1.3011391687
1.2817905401
1.2549820823
1.2154200605
1.1545997278
1.0361417499
1.0289039587
1.0163944083
1.0139798766
1.0198644675
1.0292605674
1.0404079823
1.0520833256
1.0634415374
1.0739361889
1.0832554471
1.0912600843
1.0979325654
1.1033249922
1.1075359579
1.1106922725
1.1129437344
1.1144646262
1.1154623528
1.1161952194
1.1169859915
1.1182219183
1.1203321365
1.1237216683
1.1286572663
1.1351361708
1.1427976897
1.1509564476
1.1587870415
1.1655738647
1.1708977863
1.1746850950
1.1771272448
1.1785465062
1.1792749953
1.1795705437
1.1790614855
1.3767978422
1.3762021757
1.3759463999
1.3754222203
1.3746055503
1.3734590771
1.3719320239
1.3699617626
1.3674725449
1.3643758848
1.3605722009
1.3559466782
1.3503635721
1.3436565280
1.3356027172
1.3258818701
1.3140085983
1.2992048389
1.2801831475
1.2547639869
1.2191862410
1.1683978413
1.0832454656
1.0569832434
1.0378292564
1.0302684539
1.0317904755
1.0384432808
1.0477978316
1.0581991040
1.0685793077
1.0782888700
1.0869692555
1.0944559793
1.1007120208
1.1057799772
1.1097402228
1.1127018042
1.1147993787
1.1161959533
1.1170919234
1.1177430771
1.1184735652
1.1196744046
1.1217783735
1.1251899292
1.1301666236
1.1366863863
1.1443635473
1.1524923205
1.1602417402
1.1669079894
1.1720943380
1.1757498506
1.1780818692
1.1794198019
1.1800963388
1.1803669589
1.1798564819
1.3760386055
1.3753946587
1.3751360130
1.3746062013
1.3737813488
1.3726242503
1.3710839404
1.3690971919
1.3665869945
1.3634628524
1.3596226536
1.3549487820
1.3493032026
1.3425195193
1.3343798090
1.3245791603
1.3126692621
1.2979530860
1.2793170628
1.2549615304
1.2219767131
1.1769226706
1.1095494468
1.0753062463
1.0522739187
1.0413875869
1.0400756564
1.0448043716
1.0528678093
1.0623593951
1.0720564125
1.0812280110
1.0894755298
1.0966138489
1.1025892267
1.1074371621
1.1112273030
1.1140567858
1.1160500560
1.1173624855
1.1181897416
1.1187859390
1.1194761792
1.1206539863
1.1227544689
1.1261814684
1.1311860307
1.1377328306
1.1454193914
1.1535265595
1.1612202024
1.1678048891
1.1728990647
1.1764668994
1.1787260694
1.1800104603
1.1806529258
1.1809072403
1.1803953599
1.3748989639
1.3741466645
1.3738883973
1.3733593085
1.3725354771
1.3713795686
1.3698403576
1.3678542256
1.3653435647
1.3622170861
1.3583718544
1.3536895727
1.3480321050
1.3412344375
1.3330828644
1.3232821943
1.3114046457
1.2967947713
1.2784237335
1.2546700202
1.2230126987
1.1806789079
1.1212236330
1.0842189738
1.0594619633
1.0469716645
1.0442717735
1.0480194193
1.0554147796
1.0644387753
1.0737906542
1.0826951849
1.0907304262
1.0976988651
1.1035380918
1.1082784603
1.1119850354
1.1147490667
1.1166900123
1.1179595848
1.1187512820
1.1193185923