<VTKFile type="UnstructuredGrid" version="0.1">
	<UnstructuredGrid>
		<Piece NumberOfPoints="13548" NumberOfCells="3387">
			<CellData>
				<DataArray type="Int32" Name="ghost" NumberOfComponents="1" Format="ascii">
1
1
1
1
1
1
1
1
1
1
1
1
1
1
1
1
1
1
1
1
1
1
1
1
1
1
1
1
1
1
1
1
1
1
1
1
1
1
1
1
1
1
1
1
1
1
1
1
1
1
1
1
1
1
1
1
1
1
0
0
0
0
0
0
0
0
0
0
0
0
0
0
0
0
0
0
0
0
1
1
0
0
0
0
0
0
0
0
0
0
0
0
0
0
0
0
0
0
0
0
0
0
0
0
0
0
0
0
0
0
0
0
0
1
1
0
0
0
0
0
0
0
0
0
0
0
0
0
0
0
0
0
0
0
0
1
1
0
0
0
0
0
0
0
0
0
0
0
0
0
0
0
0
0
0
0
0
0
0
0
0
0
0
0
0
0
0
0
0
0
1
1
0
0
0
0
0
0
0
0
0
0
0
0
0
0
0
0
0
0
0
0
1
1
0
0
0
0
0
0
0
0
0
0
0
0
0
0
0
0
0
0
0
0
0
0
0
0
0
0
0
0
0
0
0
0
0
1
1
0
0
0
0
0
0
0
0
0
0
0
0
0
0
0
0
0
0
0
0
1
1
0
0
0
0
0
0
0
0
0
0
0
0
0
0
0
0
0
0
0
0
0
0
0
0
0
0
0
0
0
0
0
0
0
1
1
0
0
0
0
0
0
0
0
0
0
0
0
0
0
0
0
0
0
0
0
1
1
0
0
0
0
0
0
0
0
0
0
0
0
0
0
0
0
0
0
0
0
0
0
0
0
0
0
0
0
0
0
0
0
0
1
1
0
0
0
0
0
0
0
0
0
0
0
0
0
0
0
0
0
0
0
0
1
1
0
0
0
0
0
0
0
0
0
0
0
0
0
0
0
0
0
0
0
0
0
0
0
0
0
0
0
0
0
0
0
0
0
1
1
0
0
0
0
0
0
0
0
0
0
0
0
0
0
0
0
0
0
0
0
1
1
0
0
0
0
0
0
0
0
0
0
0
0
0
0
0
0
0
0
0
0
0
0
0
0
0
0
0
0
0
0
0
0
0
1
1
0
0
0
0
0
0
0
0
0
0
0
0
0
0
0
0
0
0
0
0
1
1
0
0
0
0
0
0
0
0
0
0
0
0
0
0
0
0
0
0
0
0
0
0
0
0
0
0
0
0
0
0
0
0
0
1
1
0
0
0
0
0
0
0
0
0
0
0
0
0
0
0
0
0
0
0
0
1
1
0
0
0
0
0
0
0
0
0
0
0
0
0
0
0
0
0
0
0
0
0
0
0
0
0
0
0
0
0
0
0
0
0
1
1
0
0
0
0
0
0
0
0
0
0
0
0
0
0
0
0
0
0
0
0
1
1
0
0
0
0
0
0
0
0
0
0
0
0
0
0
0
0
0
0
0
0
0
0
0
0
0
0
0
0
0
0
0
0
0
1
1
0
0
0
0
0
0
0
0
0
0
0
0
0
0
0
0
0
0
0
0
1
1
0
0
0
0
0
0
0
0
0
0
0
0
0
0
0
0
0
0
0
0
0
0
0
0
0
0
0
0
0
0
0
0
0
1
1
0
0
0
0
0
0
0
0
0
0
0
0
0
0
0
0
0
0
0
0
1
1
0
0
0
0
0
0
0
0
0
0
0
0
0
0
0
0
0
0
0
0
0
0
0
0
0
0
0
0
0
0
0
0
0
1
1
0
0
0
0
0
0
0
0
0
0
0
0
0
0
0
0
0
0
0
0
1
1
0
0
0
0
0
0
0
0
0
0
0
0
0
0
0
0
0
0
0
0
0
0
0
0
0
0
0
0
0
0
0
0
0
1
1
0
0
0
0
0
0
0
0
0
0
0
0
0
0
0
0
0
0
0
0
1
1
0
0
0
0
0
0
0
0
0
0
0
0
0
0
0
0
0
0
0
0
0
0
0
0
0
0
0
0
0
0
0
0
0
1
1
0
0
0
0
0
0
0
0
0
0
0
0
0
0
0
0
0
0
0
0
1
1
0
0
0
0
0
0
0
0
0
0
0
0
0
0
0
0
0
0
0
0
0
0
0
0
0
0
0
0
0
0
0
0
0
1
1
0
0
0
0
0
0
0
0
0
0
0
0
0
0
0
0
0
0
0
0
1
1
0
0
0
0
0
0
0
0
0
0
0
0
0
0
0
0
0
0
0
0
0
0
0
0
0
0
0
0
0
0
0
0
0
1
1
0
0
0
0
0
0
0
0
0
0
0
0
0
0
0
0
0
0
0
0
1
1
0
0
0
0
0
0
0
0
0
0
0
0
0
0
0
0
0
0
0
0
0
0
0
0
0
0
0
0
0
0
0
0
0
1
1
0
0
0
0
0
0
0
0
0
0
0
0
0
0
0
0
0
0
0
0
1
1
0
0
0
0
0
0
0
0
0
0
0
0
0
0
0
0
0
0
0
0
0
0
0
0
0
0
0
0
0
0
0
0
0
1
1
0
0
0
0
0
0
0
0
0
0
0
0
0
0
0
0
0
0
0
0
1
1
0
0
0
0
0
0
0
0
0
0
0
0
0
0
0
0
0
0
0
0
0
0
0
0
0
0
0
0
0
0
0
0
0
1
1
0
0
0
0
0
0
0
0
0
0
0
0
0
0
0
0
0
0
0
0
1
1
0
0
0
0
0
0
0
0
0
0
0
0
0
0
0
0
0
0
0
0
0
0
0
0
0
0
0
0
0
0
0
0
0
1
1
0
0
0
0
0
0
0
0
0
0
0
0
0
0
0
0
0
0
0
0
1
1
0
0
0
0
0
0
0
0
0
0
0
0
0
0
0
0
0
0
0
0
0
0
0
0
0
0
0
0
0
0
0
0
0
1
1
0
0
0
0
0
0
0
0
0
0
0
0
0
0
0
0
0
0
0
0
1
1
0
0
0
0
0
0
0
0
0
0
0
0
0
0
0
0
0
0
0
0
0
0
0
0
0
0
0
0
0
0
0
0
0
1
1
0
0
0
0
0
0
0
0
0
0
0
0
0
0
0
0
0
0
0
0
1
1
0
0
0
0
0
0
0
0
0
0
0
0
0
0
0
0
0
0
0
0
0
0
0
0
0
0
0
0
0
0
0
0
0
1
1
0
0
0
0
0
0
0
0
0
0
0
0
0
0
0
0
0
0
0
0
1
1
0
0
0
0
0
0
0
0
0
0
0
0
0
0
0
0
0
0
0
0
0
0
0
0
0
0
0
0
0
0
0
0
0
1
1
0
0
0
0
0
0
0
0
0
0
0
0
0
0
0
0
0
0
0
0
0
1
1
0
0
0
0
0
0
0
0
0
0
0
0
0
0
0
0
0
0
0
0
0
0
0
0
0
0
0
0
0
0
0
0
0
0
1
1
0
0
0
0
0
0
0
0
0
0
0
0
0
0
0
0
0
0
0
0
0
0
0
0
0
0
0
0
0
0
0
0
0
0
0
0
0
0
0
0
0
0
0
0
0
0
0
0
0
0
0
0
0
0
0
0
0
1
1
0
0
0
0
0
0
0
0
0
0
0
0
0
0
0
0
0
0
0
0
0
0
0
0
0
0
0
0
0
0
0
0
0
0
0
0
0
0
0
0
0
0
0
0
0
0
0
0
0
0
0
0
0
0
0
0
0
1
1
0
0
0
0
0
0
0
0
0
0
0
0
0
0
0
0
0
0
0
0
0
0
0
0
0
0
0
0
0
0
0
0
0
0
0
0
0
0
0
0
0
0
0
0
0
0
0
0
0
0
0
0
0
0
0
0
0
1
1
0
0
0
0
0
0
0
0
0
0
0
0
0
0
0
0
0
0
0
0
0
0
0
0
0
0
0
0
0
0
0
0
0
0
0
0
0
0
0
0
0
0
0
0
0
0
0
0
0
0
0
0
0
0
0
0
0
1
1
0
0
0
0
0
0
0
0
0
0
0
0
0
0
0
0
0
0
0
0
0
0
0
0
0
0
0
0
0
0
0
0
0
0
0
0
0
0
0
0
0
0
0
0
0
0
0
0
0
0
0
0
0
0
0
0
0
1
1
0
0
0
0
0
0
0
0
0
0
0
0
0
0
0
0
0
0
0
0
0
0
0
0
0
0
0
0
0
0
0
0
0
0
0
0
0
0
0
0
0
0
0
0
0
0
0
0
0
0
0
0
0
0
0
0
0
1
1
0
0
0
0
0
0
0
0
0
0
0
0
0
0
0
0
0
0
0
0
0
0
0
0
0
0
0
0
0
0
0
0
0
0
0
0
0
0
0
0
0
0
0
0
0
0
0
0
0
0
0
0
0
0
0
0
0
1
1
0
0
0
0
0
0
0
0
0
0
0
0
0
0
0
0
0
0
0
0
0
0
0
0
0
0
0
0
0
0
0
0
0
0
0
0
0
0
0
0
0
0
0
0
0
0
0
0
0
0
0
0
0
0
0
0
0
1
1
0
0
0
0
0
0
0
0
0
0
0
0
0
0
0
0
0
0
0
0
0
0
0
0
0
0
0
0
0
0
0
0
0
0
0
0
0
0
0
0
0
0
0
0
0
0
0
0
0
0
0
0
0
0
0
0
0
1
1
0
0
0
0
0
0
0
0
0
0
0
0
0
0
0
0
0
0
0
0
0
0
0
0
0
0
0
0
0
0
0
0
0
0
0
0
0
0
0
0
0
0
0
0
0
0
0
0
0
0
0
0
0
0
0
0
0
1
1
0
0
0
0
0
0
0
0
0
0
0
0
0
0
0
0
0
0
0
0
0
1
1
0
0
0
0
0
0
0
0
0
0
0
0
0
0
0
0
0
0
0
0
0
0
0
0
0
0
0
0
0
0
0
0
0
0
1
1
0
0
0
0
0
0
0
0
0
0
0
0
0
0
0
0
0
0
0
0
1
1
0
0
0
0
0
0
0
0
0
0
0
0
0
0
0
0
0
0
0
0
0
0
0
0
0
0
0
0
0
0
0
0
0
1
1
0
0
0
0
0
0
0
0
0
0
0
0
0
0
0
0
0
0
0
0
1
1
0
0
0
0
0
0
0
0
0
0
0
0
0
0
0
0
0
0
0
0
0
0
0
0
0
0
0
0
0
0
0
0
0
1
1
0
0
0
0
0
0
0
0
0
0
0
0
0
0
0
0
0
0
0
0
1
1
0
0
0
0
0
0
0
0
0
0
0
0
0
0
0
0
0
0
0
0
0
0
0
0
0
0
0
0
0
0
0
0
0
1
1
0
0
0
0
0
0
0
0
0
0
0
0
0
0
0
0
0
0
0
0
1
1
0
0
0
0
0
0
0
0
0
0
0
0
0
0
0
0
0
0
0
0
0
0
0
0
0
0
0
0
0
0
0
0
0
1
1
0
0
0
0
0
0
0
0
0
0
0
0
0
0
0
0
0
0
0
0
1
1
0
0
0
0
0
0
0
0
0
0
0
0
0
0
0
0
0
0
0
0
0
0
0
0
0
0
0
0
0
0
0
0
0
1
1
0
0
0
0
0
0
0
0
0
0
0
0
0
0
0
0
0
0
0
0
1
1
0
0
0
0
0
0
0
0
0
0
0
0
0
0
0
0
0
0
0
0
0
0
0
0
0
0
0
0
0
0
0
0
0
1
1
0
0
0
0
0
0
0
0
0
0
0
0
0
0
0
0
0
0
0
0
1
1
0
0
0
0
0
0
0
0
0
0
0
0
0
0
0
0
0
0
0
0
0
0
0
0
0
0
0
0
0
0
0
0
0
1
1
0
0
0
0
0
0
0
0
0
0
0
0
0
0
0
0
0
0
0
0
1
1
0
0
0
0
0
0
0
0
0
0
0
0
0
0
0
0
0
0
0
0
0
0
0
0
0
0
0
0
0
0
0
0
0
1
1
0
0
0
0
0
0
0
0
0
0
0
0
0
0
0
0
0
0
0
0
1
1
0
0
0
0
0
0
0
0
0
0
0
0
0
0
0
0
0
0
0
0
0
0
0
0
0
0
0
0
0
0
0
0
0
1
1
0
0
0
0
0
0
0
0
0
0
0
0
0
0
0
0
0
0
0
0
1
1
0
0
0
0
0
0
0
0
0
0
0
0
0
0
0
0
0
0
0
0
0
0
0
0
0
0
0
0
0
0
0
0
0
1
1
0
0
0
0
0
0
0
0
0
0
0
0
0
0
0
0
0
0
0
0
1
1
0
0
0
0
0
0
0
0
0
0
0
0
0
0
0
0
0
0
0
0
0
0
0
0
0
0
0
0
0
0
0
0
0
1
1
0
0
0
0
0
0
0
0
0
0
0
0
0
0
0
0
0
0
0
0
1
1
0
0
0
0
0
0
0
0
0
0
0
0
0
0
0
0
0
0
0
0
0
0
0
0
0
0
0
0
0
0
0
0
0
1
1
0
0
0
0
0
0
0
0
0
0
0
0
0
0
0
0
0
0
0
0
1
1
0
0
0
0
0
0
0
0
0
0
0
0
0
0
0
0
0
0
0
0
0
0
0
0
0
0
0
0
0
0
0
0
0
1
1
0
0
0
0
0
0
0
0
0
0
0
0
0
0
0
0
0
0
0
0
1
1
0
0
0
0
0
0
0
0
0
0
0
0
0
0
0
0
0
0
0
0
0
0
0
0
0
0
0
0
0
0
0
0
0
1
1
0
0
0
0
0
0
0
0
0
0
0
0
0
0
0
0
0
0
0
0
1
1
0
0
0
0
0
0
0
0
0
0
0
0
0
0
0
0
0
0
0
0
0
0
0
0
0
0
0
0
0
0
0
0
0
1
1
0
0
0
0
0
0
0
0
0
0
0
0
0
0
0
0
0
0
0
0
1
1
0
0
0
0
0
0
0
0
0
0
0
0
0
0
0
0
0
0
0
0
0
0
0
0
0
0
0
0
0
0
0
0
0
1
1
0
0
0
0
0
0
0
0
0
0
0
0
0
0
0
0
0
0
0
0
1
1
0
0
0
0
0
0
0
0
0
0
0
0
0
0
0
0
0
0
0
0
0
0
0
0
0
0
0
0
0
0
0
0
0
1
1
0
0
0
0
0
0
0
0
0
0
0
0
0
0
0
0
0
0
0
0
1
1
0
0
0
0
0
0
0
0
0
0
0
0
0
0
0
0
0
0
0
0
0
0
0
0
0
0
0
0
0
0
0
0
0
1
1
0
0
0
0
0
0
0
0
0
0
0
0
0
0
0
0
0
0
0
0
1
1
0
0
0
0
0
0
0
0
0
0
0
0
0
0
0
0
0
0
0
0
0
0
0
0
0
0
0
0
0
0
0
0
0
1
1
0
0
0
0
0
0
0
0
0
0
0
0
0
0
0
0
0
0
0
0
1
1
0
0
0
0
0
0
0
0
0
0
0
0
0
0
0
0
0
0
0
0
0
0
0
0
0
0
0
0
0
0
0
0
0
1
1
0
0
0
0
0
0
0
0
0
0
0
0
0
0
0
0
0
0
0
0
1
1
0
0
0
0
0
0
0
0
0
0
0
0
0
0
0
0
0
0
0
0
0
0
0
0
0
0
0
0
0
0
0
0
0
1
1
1
1
1
1
1
1
1
1
1
1
1
1
1
1
1
1
1
1
1
1
1
1
1
1
1
1
1
1
1
1
1
1
1
1
1
1
1
1
1
1
1
1
1
1
1
1
1
1
1
1
1
1
1
1
1
1
				</DataArray>
				<DataArray type="Float64" Name="h" NumberOfComponents="1" Format="ascii">
1.1583409814
1.1563354280
1.1562037170
1.1559380072
1.1555344083
1.1549891467
1.1543005493
1.1534708977
1.1525082356
1.1514274420
1.1502503723
1.1490053546
1.1477259986
1.1464495658
1.1452151925
1.1440622814
1.1430291376
1.1421515187
1.1414612967
1.1409849969
1.1407417915
1.1407417915
1.2746997849
1.2765144419
1.2756257491
1.2737939064
1.2709344658
1.2669800494
1.2619360783
1.2559271523
1.2492182741
1.2421935108
1.2352914056
1.2289219176
1.2233930698
1.2188711084
1.2153827671
1.2128462136
1.2111132561
1.2100085946
1.2093586762
1.2090098200
1.2088361853
1.2087417718
1.2086595326
1.2085471436
1.2083826717
1.2081609950
1.2078888866
1.2075813034
1.2072588746
1.2069442889
1.2066599299
1.2064265853
1.2062610923
1.2061751441
1.2061751441
1.1563354280
1.1543181778
1.1541745865
1.1538843605
1.1534422526
1.1528427971
1.1520826623
1.1511629160
1.1500912058
1.1488831473
1.1475626469
1.1461614054
1.1447176071
1.1432740107
1.1418757961
1.1405685709
1.1393965987
1.1384010071
1.1376182003
1.1370782013
1.1368025485
1.1407417915
1.2765144419
1.2782179538
1.2774522190
1.2758581703
1.2733325085
1.2697745677
1.2651403090
1.2594924539
1.2530325133
1.2460952774
1.2390985867
1.2324657078
1.2265457075
1.2215592033
1.2175856227
1.2145842773
1.2124331833
1.2109698515
1.2100237981
1.2094383783
1.2090816955
1.2088505294
1.2086705198
1.2084924652
1.2082881894
1.2080469781
1.2077706132
1.2074696030
1.2071606240
1.2068628883
1.2065957905
1.2063776447
1.2062233759
1.2061433723
1.2061751441
1.1562840309
1.1543000908
1.1541542860
1.1538599053
1.1534122096
1.1528064053
1.1520399044
1.1511144876
1.1500383875
1.1488276024
1.1475061796
1.1461057158
1.1446640816
1.1432235781
1.1418288647
1.1405250520
1.1393560097
1.1383626335
1.1375812822
1.1370420877
1.1367667693
1.1406851265
1.2765796409
1.2782949425
1.2775194142
1.2759073373
1.2733586177
1.2697774165
1.2651256146
1.2594717586
1.2530214898
1.2461106129
1.2391544396
1.2325711042
1.2267038268
1.2217685722
1.2178423606
1.2148843491
1.2127739724
1.2113508443
1.2104465461
1.2099060321
1.2095983523
1.2094205630
1.2092979898
1.2091806296
1.2090391256
1.2088613105
1.2086473347
1.2084059773
1.2081521706
1.2079034452
1.2076776478
1.2074917499
1.2073596061
1.2072908571
1.2072736205
1.1561785392
1.1542602260
1.1541101857
1.1538078652
1.1533495151
1.1527316494
1.1519531219
1.1510170909
1.1499329120
1.1487173080
1.1473945778
1.1459960928
1.1445590914
1.1431249661
1.1417373486
1.1404403731
1.1392771407
1.1382881046
1.1375095562
1.1369718739
1.1366971667
1.1405738446
1.2766875802
1.2784261147
1.2776313034
1.2759838075
1.2733899764
1.2697636133
1.2650783256
1.2594140684
1.2529844188
1.2461269179
1.2392516929
1.2327667117
1.2270037685
1.2221698268
1.2183373161
1.2154651802
1.2134356786
1.2120925603
1.2112714560
1.2108204564
1.2106104722
1.2105391098
1.2105310828
1.2105348134
1.2105186119
1.2104674292
1.2103781651
1.2102561398
1.2101127840
1.2099622414
1.2098192309
1.2096980065
1.2096102508
1.2095640863
1.2094548944
1.1560144326
1.1541920396
1.1540361279
1.1537228266
1.1532498044
1.1526154427
1.1518206453
1.1508705156
1.1497759770
1.1485547391
1.1472314050
1.1458369662
1.1444077030
1.1429836602
1.1416069607
1.1403203151
1.1391657163
1.1381830017
1.1374084191
1.1368727841
1.1365988596
1.1404132459
1.2767950566
1.2785676912
1.2777447196
1.2760456931
1.2733867031
1.2696959769
1.2649644194
1.2592884984
1.2528929007
1.2461170753
1.2393630863
1.2330239077
1.2274148466
1.2227300917
1.2190357125
1.2162905487
1.2143810530
1.2131569948
1.2124598719
1.2121423180
1.2120779468
1.2121651723
1.2123278257
1.2125120335
1.2126826834
1.2128204714
1.2129174714
1.2129738393
1.2129957514
1.2129922463
1.2129733110
1.2129490754
1.2129279179
1.2129156479
1.2126834888
1.1557844842
1.1540852035
1.1539223637
1.1535961559
1.1531060118
1.1524526253
1.1516394207
1.1506738698
1.1495687714
1.1483429686
1.1470213385
1.1456342931
1.1442168192
1.1428071940
1.1414455869
1.1401728831
1.1390296745
1.1380550624
1.1372853385
1.1367520279
1.1364788983
1.1402106300
1.2768399866
1.2786569931
1.2777980068
1.2760334491
1.2732925064
1.2695225166
1.2647368604
1.2590528908
1.2527086668
1.2460449576
1.2394526147
1.2333051181
1.2278969593
1.2234065642
1.2198924194
1.2173135719
1.2155619554
1.2144950153
1.2139616781
1.2138203230
1.2139479866
1.2142441084
1.2146313949
1.2150530292
1.2154694854
1.2158559403
1.2161981700
1.2164895539
1.2167293393
1.2169198036
1.2170646443
1.2171684953
1.2172353226
1.2172678418
1.2168987588
1.1554789152
1.1539256991
1.1537556429
1.1534160796
1.1529084357
1.1522360052
1.1514050204
1.1504255536
1.1493124096
1.1480855662
1.1467700422
1.1453954177
1.1439950414
1.1426050283
1.1412631950
1.1400082513
1.1388791496
1.1379141940
1.1371498873
1.1366188435
1.1363463091
1.1399753309
1.2767446331
1.2786158872
1.2777145397
1.2758735208
1.2730384789
1.2691803460
1.2643395729
1.2586577890
1.2523875457
1.2458694629
1.2394797824
1.2335684516
1.2284057185
1.2241521724
1.2208580932
1.2184832310
1.2169261401
1.2160532777
1.2157222127
1.2157979864
1.2161615963
1.2167136503
1.2173755053
1.2180868438
1.2188028776
1.2194921770
1.2201329482
1.2207103915
1.2212153632
1.2216419309
1.2219861392
1.2222459252
1.2224198744
1.2225069266
1.2220077621
1.1550863071
1.1536967221
1.1535201079
1.1531685571
1.1526455779
1.1519571552
1.1511123902
1.1501239571
1.1490085866
1.1477872237
1.1464847827
1.1451297020
1.1437533417
1.1423892892
1.1410726568
1.1398396802
1.1387274833
1.1377735678
1.1370148978
1.1364856871
1.1362132977
1.1397199098
1.2764201602
1.2783555341
1.2774074730
1.2754830796
1.2725477741
1.2686002229
1.2637117483
1.2580504481
1.2518831988
1.2455481071
1.2394032619
1.2337716434
1.2288968327
1.2249204503
1.2218845098
1.2197500685
1.2184232001
1.2177802926
1.2176883317
1.2180195741
1.2186592717
1.2195092286
1.2204892305
1.2215350087
1.2225958563
1.2236329127
1.2246158620
1.2255206871
1.2263287850
1.2270249691
1.2275966622
1.2280342647
1.2283303132
1.2284795059
1.2278793842
1.1545931385
1.1533782953
1.1531968756
1.1528368014
1.1523035777
1.1516057408
1.1507550588
1.1497665473
1.1486585498
1.1474526283
1.1461732272
1.1448472769
1.1435037943
1.1421735049
1.1408885102
1.1396823160
1.1385900625
1.1376484847
1.1368953399
1.1363671065
1.1360941130
1.1394590037
1.2757702029
1.2777800317
1.2767834155
1.2747737330
1.2717393137
1.2677101695
1.2627912825
1.2571780362
1.2511501313
1.2450400016
1.2391840636
1.2338756276
1.2293302111
1.2256702019
1.2229297283
1.2210717395
1.2200103762
1.2196323688
1.2198143808
1.2204360137
1.2213867796
1.2225695661
1.2239023700
1.2253166558
1.2267553959
1.2281718359
1.2295266382
1.2307860595
1.2319215517
1.2329082383
1.2337245500
1.2343530605
1.2347800475
1.2349958327
1.2343444706
1.1539845544
1.1529482052
1.1527649235
1.1524020697
1.1518668702
1.1511700193
1.1503254670
1.1493500317
1.1482631148
1.1470863610
1.1458432616
1.1445588207
1.1432593550
1.1419724213
1.1407268385
1.1395531494
1.1384843621
1.1375564903
1.1368084796
1.1362799114
1.1360052130
1.1392095094
1.2746948818
1.2767903544
1.2757462920
1.2736552121
1.2705311740
1.2664384142
1.2615171518
1.2559894085
1.2501449595
1.2443068260
1.2387864754
1.2338456725
1.2296714332
1.2263673389
1.2239602495
1.2224153982
1.2216550653
1.2215761507
1.2220646982
1.2230073380
1.2242975559
1.2258390852
1.2275479546
1.2293512385
1.2311855227
1.2329961610
1.2347348727
1.2363583491
1.2378283428
1.2391106081
1.2401749522
1.2409965035
1.2415556277
1.2418385326
1.2412011645
1.1532458238
1.1523837993
1.1522028172
1.1518452579
1.1513195986
1.1506380419
1.1498159520
1.1488711390
1.1478232748
1.1466933794
1.1455034012
1.1442759525
1.1430342902
1.1418025143
1.1406059046
1.1394717983
1.1384308833
1.1375184525
1.1367750566
1.1362443992
1.1359664984
1.1389918404
1.2730953670
1.2752887390
1.2742015093
1.2720390937
1.2688436448
1.2647155965
1.2598306543
1.2544354130
1.2488259571
1.2433118958
1.2381769481
1.2336503140
1.2298908575
1.2269841920
1.2249504857
1.2237572468
1.2233343704
1.2235881174
1.2244130580
1.2257021253
1.2273522604
1.2292677553
1.2313626173
1.2335596949
1.2357895564
1.2379902273
1.2401052283
1.2420825896
1.2438753981
1.2454411501
1.2467421510
1.2477471343
1.2484314437
1.2487778217
1.2482272821
1.1523630137
1.1516631333
1.1514897572
1.1511477587
1.1506462151
1.1499979532
1.1492187294
1.1483262933
1.1473395986
1.1462781858
1.1451617820
1.1440101024
1.1428429790
1.1416807712
1.1405449521
1.1394593608
1.1384520752
1.1375575465
1.1368182992
1.1362833534
1.1360002768
1.1388289104
1.2708760162
1.2731805038
1.2720575741
1.2698400126
1.2665998406
1.2624746294
1.2576744811
1.2524672729
1.2471509843
1.2420179324
1.2373219645
1.2332594868
1.2299620661
1.2274982335
1.2258816738
1.2250815378
1.2250341082
1.2256535608
1.2268416533
1.2284966040
1.2305182018
1.2328111131
1.2352875421
1.2378666928
1.2404740203
1.2430414118
1.2455056208
1.2478076402
1.2498936404
1.2517146525
1.2532272191
1.2543952538
1.2551903795
1.2555928035
1.2552001964
1.1513248497
1.1507673947
1.1506078906
1.1502935599
1.1498332882
1.1492394604
1.1485270080
1.1477123870
1.1468126957
1.1458450348
1.1448261678
1.1437723798
1.1426997020
1.1416244582
1.1405640070
1.1395382966
1.1385723293
1.1376993636
1.1369641066
1.1364222296
1.1361314078
1.1387463366
1.2679470604
1.2703763662
1.2692280864
1.2669770274
1.2637261898
1.2596501659
1.2549911680
1.2500342058
1.2450745753
1.2403839333
1.2361849343
1.2326415667
1.2298590719
1.2278893930
1.2267392107
1.2263778428
1.2267459638
1.2277636415
1.2293381494
1.2313718880
1.2337670221
1.2364287270
1.2392680781
1.2422017677
1.2451516510
1.2480452951
1.2508147357
1.2533961336
1.2557310141
1.2577661819
1.2594545196
1.2607569729
1.2616429419
1.2620911535
1.2619171133
1.1501248596
1.1496836938
1.1495449926
1.1492717221
1.1488717033
1.1483557111
1.1477365296
1.1470279934
1.1462441340
1.1453986018
1.1445044264
1.1435739157
1.1426189142
1.1416513895
1.1406842106
1.1397328944
1.1388186363
1.1379727778
1.1372420807
1.1366902414
1.1363883549
1.1387735285
1.2642287826
1.2667963058
1.2656351416
1.2633761578
1.2601538215
1.2561787209
1.2517220484
1.2470814823
1.2425454618
1.2383624843
1.2347234982
1.2317607413
1.2295537290
1.2281374301
1.2275099046
1.2276381315
1.2284644044
1.2299122239
1.2318926132
1.2343112480
1.2370726152
1.2400830953
1.2432539414
1.2465011117
1.2497449871
1.2529111748
1.2559294937
1.2587338268
1.2612635673
1.2634636764
1.2652855420
1.2666889943
1.2676426760
1.2681248514
1.2682131614
1.1487628493
1.1484071202
1.1482964247
1.1480781477
1.1477581699
1.1473444881
1.1468464221
1.1462738684
1.1456365961
1.1449438123
1.1442040575
1.1434251243
1.1426142820
1.1417787928
1.1409265788
1.1400680011
1.1392193652
1.1384088260
1.1376844817
1.1371192803
1.1368019779
1.1389424834
1.2596541670
1.2623718902
1.2612112656
1.2589716229
1.2558189511
1.2519982400
1.2478062347
1.2435491798
1.2395054591
1.2358990232
1.2328892501
1.2305771234
1.2290160858
1.2282223529
1.2281823155
1.2288569605
1.2301867371
1.2320959181
1.2344977367
1.2373007689
1.2404124839
1.2437419449
1.2472026391
1.2507122242
1.2541922565
1.2575691104
1.2607731008
1.2637384585
1.2664049023
1.2687177855
1.2706289620
1.2720987726
1.2730963581
1.2736003780
1.2739750283
1.1472467389
1.1469430176
1.1468673474
1.1467176749
1.1464971472
1.1462099260
1.1458606748
1.1454541618
1.1449948121
1.1444864887
1.1439325556
1.1433357963
1.1426985346
1.1420229652
1.1413115343
1.1405685280
1.1398038596
1.1390404892
1.1383261887
1.1377438888
1.1374053401
1.1392875963
1.2541757825
1.2570529014
1.2559055234
1.2537110744
1.2506671147
1.2470514549
1.2431834148
1.2393748216
1.2358922800
1.2329349828
1.2306311696
1.2290502918
1.2282177901
1.2281274638
1.2287492982
1.2300334866
1.2319146829
1.2343154064
1.2371501616
1.2403309225
1.2437697669
1.2473808362
1.2510826712
1.2547976263
1.2584514278
1.2619740769
1.2652990486
1.2683633534
1.2711091936
1.2734841897
1.2754422449
1.2769454761
1.2779644755
1.2784789380
1.2791446117
1.1455936477
1.1453083154
1.1452740473
1.1452053922
1.1451021330
1.1449637533
1.1447893071
1.1445774786
1.1443264760
1.1440340876
1.1436979424
1.1433154121
1.1428835659
1.1423992001
1.1418587304
1.1412592922
1.1406024612
1.1399030628
1.1392054567
1.1386021725
1.1382344210
1.1398463124
1.2477781638
1.2508195317
1.2496950481
1.2475660690
1.2446625321
1.2412943678
1.2378018627
1.2345013224
1.2316476664
1.2294161217
1.2279039469
1.2271472763
1.2271393858
1.2278456994
1.2292132679
1.2311757085
1.2336577932
1.2365783158
1.2398531074
1.2433991928
1.2471359998
1.2509860689
1.2548764677
1.2587376136
1.2625025051
1.2661075127
1.2694916535
1.2725967590
1.2753692176
1.2777603240
1.2797271687
1.2812345154
1.2822550448
1.2827699081
1.2837150609
1.1438298902
1.1435314883
1.1435439357
1.1435667049
1.1435958090
1.1436255064
1.1436486160
1.1436571062
1.1436423860
1.1435956807
1.1435085182
1.1433726066
1.1431795762
1.1429205972
1.1425855676
1.1421633410
1.1416448275
1.1410327092
1.1403628392
1.1397348417
1.1393267433
1.1406575977
1.2404911447
1.2436954689
1.2425975103
1.2405437543
1.2377992498
1.2347073268
1.2316299848
1.2288894020
1.2267307718
1.2253066452
1.2246823492
1.2248565560
1.2257833613
1.2273913122
1.2295963297
1.2323090949
1.2354407973
1.2389055872
1.2426220386
1.2465152283
1.2505158034
1.2545588258
1.2585837997
1.2625326874
1.2663487201
1.2699770450
1.2733641576
1.2764582502
1.2792110889
1.2815785662
1.2835216694
1.2850083204
1.2860136483
1.2865204948
1.2877218919
1.1419904224
1.1416517291
1.1417148013
1.1418367348
1.1420096277
1.1422223103
1.1424611256
1.1427110780
1.1429565470
1.1431820106
1.1433727865
1.1435148895
1.1435945307
1.1435972364
1.1435061041
1.1433007012
1.1429587454
1.1424656901
1.1418411330
1.1411855785
1.1407211672
1.1417615398
1.2324093260
1.2357671309
1.2346895324
1.2327044295
1.2301183007
1.2273123975
1.2246744461
1.2225367255
1.2211381631
1.2206095174
1.2209810307
1.2222064934
1.2241904791
1.2268136547
1.2299514191
1.2334852763
1.2373102210
1.2413364390
1.2454883279
1.2497034196
1.2539284433
1.2581156527
1.2622210393
1.2662014270
1.2700128677
1.2736111966
1.2769517815
1.2799901809
1.2826842289
1.2849949015
1.2868874246
1.2883330925
1.2893096240
1.2898016408
1.2912291051
1.1401170310
1.1397166691
1.1398326365
1.1400583397
1.1403820847
1.1407874273
1.1412543972
1.1417611992
1.1422853440
1.1428047343
1.1432986900
1.1437478034
1.1441331938
1.1444350641
1.1446298190
1.1446871285
1.1445691373
1.1442381390
1.1436864874
1.1430032380
1.1424593514
1.1432005035
1.2237113871
1.2272028546
1.2261249792
1.2241794005
1.2217259978
1.2191928545
1.2170012928
1.2155005967
1.2149274770
1.2153900361
1.2168767778
1.2192850885
1.2224562158
1.2262099522
1.2303715132
1.2347881346
1.2393379481
1.2439299803
1.2484993717
1.2530017975
1.2574056273
1.2616851569
1.2658167035
1.2697748164
1.2735303810
1.2770512193
1.2803023806
1.2832472673
1.2858500170
1.2880767981
1.2898971143
1.2912856147
1.2922225805
1.2926943944
1.2943149240
1.1382558208
1.1377792634
1.1379486022
1.1382792230
1.1387560101
1.1393577334
1.1400586619
1.1408307804
1.1416453067
1.1424741446
1.1432912258
1.1440723937
1.1447944343
1.1454330498
1.1459586654
1.1463311643
1.1464953933
1.1463842895
1.1459484835
1.1452438061
1.1445864497
1.1450193341
1.2146631294
1.2182561693
1.2171378829
1.2151755161
1.2128018997
1.2105055767
1.2087529354
1.2079188064
1.2082406529
1.2097995100
1.2125306493
1.2162589776
1.2207456622
1.2257358578
1.2309961749
1.2363370114
1.2416218607
1.2467639599
1.2517159379
1.2564582738
1.2609867784
1.2653023575
1.2694048889
1.2732887746
1.2769409962
1.2803419650
1.2834666180
1.2862861781
1.2887709147
1.2908919763
1.2926229364
1.2939415947
1.2948306361
1.2952780999
1.2970589774
1.1364546444
1.1358946139
1.1361158725
1.1365488072
1.1371754508
1.1379705563
1.1389035289
1.1399411064
1.1410492225
1.1421948271
1.1433475921
1.1444798642
1.1455655184
1.1465773607
1.1474814924
1.1482292734
1.1487478394
1.1489352730
1.1486828813
1.1479777149
1.1471571170
1.1472706826
1.2055892184
1.2092387772
1.2080176467
1.2059578673
1.2035919523
1.2014850903
1.2001616715
1.2000297882
1.2013270508
1.2040976121
1.2082065103
1.2133862491
1.2193000084
1.2256060631
1.2320074118
1.2382791669
1.2442761486
1.2499238922
1.2552007464
1.2601190329
1.2647073999
1.2689970732
1.2730136891
1.2767726030
1.2802772389
1.2835204353
1.2864866112
1.2891543085
1.2914993908
1.2934974964
1.2951258495
1.2963650416
1.2971998923
1.2976199220
1.2995306575
1.1347605993
1.1341168879
1.1343865100
1.1349149990
1.1356822154
1.1366598298
1.1378135051
1.1391060042
1.1404993721
1.1419571584
1.1434465816
1.1449386500
1.1464069460
1.1478245393
1.1491568079
1.1503502047
1.1513164554
1.1519156849
1.1519604036
1.1513137459
1.1502627616
1.1500409834
1.1967513090
1.2004022244
1.1990118000
1.1967853798
1.1943772388
1.1924398173
1.1915650591
1.1921978021
1.1945697832
1.1986731857
1.2042823699
1.2110171404
1.2184276090
1.2260780376
1.2336088067
1.2407667792
1.2474080647
1.2534807817
1.2589977914
1.2640096680
1.2685819899
1.2727784626
1.2766511706
1.2802362141
1.2835527487
1.2866050670
1.2893860620
1.2918806505
1.2940694321
1.2959318079
1.2974480581
1.2986010811
1.2993774713
1.2997679948
1.3017812573
1.1332194705
1.1324982930
1.1328104032
1.1334230119
1.1343144204
1.1354540632
1.1368048871
1.1383268760
1.1399795636
1.1417247655
1.1435294430
1.1453663041
1.1472129754
1.1490490070
1.1508476299
1.1525615015
1.1540996213
1.1552935087
1.1558659917
1.1554788340
1.1541832127
1.1535985967
1.1878821061
1.1914825826
1.1900674731
1.1878124614
1.1854768163
1.1838083731
1.1834813230
1.1849840537
1.1885383975
1.1940722226
1.2012536115
1.2095766254
1.2184720529
1.2274119397
1.2359826794
1.2439152572
1.2510797400
1.2574575107
1.2631034838
1.2681107437
1.2725834621
1.2766176897
1.2802907174
1.2836576722
1.2867516165
1.2895865440
1.2921622788
1.2944688039
1.2964903531
1.2982091946
1.2996079466
1.3006712438
1.3013870350
1.3017470547
1.3038388753
1.1318782077
1.1310912374
1.1314376736
1.1321182402
1.1331099785
1.1343804391
1.1358901696
1.1375965831
1.1394567195
1.1414304847
1.1434843828
1.1455929432
1.1477391214
1.1499131884
1.1521066989
1.1543014020
1.1564498852
1.1584414975
1.1600524013
1.1609148741
1.1608177478
1.1598200833
1.1757257000
1.1792844418
1.1805202565
1.1794708850
1.1777564357
1.1766013897
1.1769312877
1.1793480217
1.1840878589
1.1910186289
1.1996997642
1.2094986284
1.2197310069
1.2297865688
1.2392111616
1.2477337257
1.2552496218
1.2617810011
1.2674283562
1.2723275092
1.2766193328
1.2804292317
1.2838563454
1.2869716332
1.2898192653
1.2924205879
1.2947804617
1.2968924290
1.2987431546
1.3003168226
1.3015976377
1.3025713845
1.3032269336
1.3035567006
1.3057061677
1.1307891219
1.1299523205
1.1303235162
1.1310529055
1.1321162199
1.1334789024
1.1350985049
1.1369286058
1.1389213090
1.1410301826
1.1432135406
1.1454342929
1.1476573121
1.1498425688
1.1519270082
1.1537904171
1.1551921255
1.1556489915
1.1542063872
1.1490193038
1.1367302808
1.1127051973
1.0953148333
1.1366528390
1.2060892863
1.1934390696
1.1864822418
1.1808977957
1.1766639195
1.1742482815
1.1741849349
1.1768453437
1.1822936071
1.1902366062
1.2000728939
1.2110203860
1.2222751163
1.2331494815
1.2431576673
1.2520346191
1.2597055431
1.2662338846
1.2717629019
1.2764662184
1.2805156376
1.2840602335
1.2872159309
1.2900653336
1.2926604142
1.2950273414
1.2971741103
1.2990963912
1.3007821945
1.3022167820
1.3033852898
1.3042741478
1.3048727724
1.3051740076
1.3073626843
1.1300120018
1.1291444061
1.1295311606
1.1302910443
1.1313986221
1.1328174357
1.1345023100
1.1364033587
1.1384683287
1.1406455531
1.1428875638
1.1451510235
1.1473946306
1.1495739681
1.1516265080
1.1534458120
1.1548394578
1.1554566811
1.1546802075
1.1514947260
1.1444598591
1.1322438580
1.0996901917
1.1399223712
1.1789417098
1.1808561147
1.1795305490
1.1766383096
1.1737485232
1.1721153880
1.1726879873
1.1760382083
1.1822937376
1.1911366846
1.2018909749
1.2136858639
1.2256433025
1.2370321153
1.2473571558
1.2563709436
1.2640310757
1.2704385143
1.2757719921
1.2802344230
1.2840203385
1.2872954014
1.2901866710
1.2927841256
1.2951444480
1.2972964707
1.2992498300
1.3010012819
1.3025394498
1.3038501270
1.3049189551
1.3057326864
1.3062810362
1.3065571050
1.3087683364
1.1296072517
1.1287298169
1.1291242437
1.1298990260
1.1310279369
1.1324732516
1.1341880497
1.1361204308
1.1382159058
1.1404206883
1.1426861600
1.1449697398
1.1472346240
1.1494481016
1.1515715611
1.1535435433
1.1552534033
1.1564944880
1.1568986662
1.1558622952
1.1524977101
1.1454660250
1.1259667229
1.1476156043
1.1728329808
1.1773749738
1.1772767613
1.1752331339
1.1729935793
1.1719173447
1.1730334580
1.1769595322
1.1838279252
1.1932898825
1.2046182969
1.2168914887
1.2291967041
1.2407907661
1.2511877559
1.2601629762
1.2677014161
1.2739306641
1.2790520590
1.2832856256
1.2868383984
1.2898847472
1.2925572237
1.2949493473
1.2971200402
1.2990993219
1.3008976161
1.3025122833
1.3039323098
1.3051438660
1.3061329821
1.3068866526
1.3073948195
1.3076507787
1.3098689478
1.1296244929
1.1287589970
1.1291544022
1.1299308929
1.1310618595
1.1325090036
1.1342247117
1.1361565326
1.1382497020
1.1404508289
1.1427132105
1.1449986233
1.1472787228
1.1495361937
1.1517582965
1.1539251904
1.1559910604
1.1578453036
1.1592538672
1.1597785636
1.1586579212
1.1544320135
1.1418698065
1.1535302644
1.1703717235
1.1759524645
1.1769043233
1.1756548740
1.1740090196
1.1734083844
1.1749370827
1.1792347174
1.1864278494
1.1961465373
1.2076424082
1.2199849360
1.2322690453
1.2437711592
1.2540294577
1.2628409148
1.2702058885
1.2762614757
1.2812141465
1.2852860364
1.2886850735
1.2915860760
1.2941216993
1.2963857178
1.2984374734
1.3003073586
1.3020063328
1.3035324013
1.3048751143
1.3060212368
1.3069573702
1.3076709112
1.3081521333
1.3083945825
1.3106043397
1.1300954453
1.1292634977
1.1296538143
1.1304200420
1.1315355095
1.1329618894
1.1346516797
1.1365529221
1.1386118510
1.1407768694
1.1430044466
1.1452615070
1.1475279147
1.1497994585
1.1520835222
1.1543903087
1.1567174532
1.1590134095
1.1611181717
1.1626745696
1.1629865002
1.1606810670
1.1522161665
1.1585127855
1.1701573025
1.1758937484
1.1776649617
1.1771813171
1.1761261085
1.1759570028
1.1777824154
1.1822480565
1.1894735126
1.1990848178
1.2103475241
1.2223674629
1.2342902146
1.2454417295
1.2553960138
1.2639670633
1.2711555080
1.2770885515
1.2819588764
1.2859750240
1.2893340109
1.2922029642
1.2947095605
1.2969449050
1.2989673037
1.3008070620
1.3024757422
1.3039723218
1.3052873795
1.3064087253
1.3073239154
1.3080210825
1.3084910702
1.3087278206
1.3109133098
1.1310314683
1.1302535989
1.1306328959
1.1313771317
1.1324598181
1.1338430047
1.1354798737
1.1373196257
1.1393101969
1.1414023526
1.1435558181
1.1457418781
1.1479463420
1.1501734351
1.1524425759
1.1547811901
1.1572112422
1.1597138455
1.1621698562
1.1642684966
1.1653626209
1.1641847524
1.1578998218
1.1620707093
1.1714052256
1.1771842518
1.1795054800
1.1795895560
1.1789814588
1.1791052051
1.1810525225
1.1854513782
1.1924107661
1.2015692284
1.2122387075
1.2235999366
1.2348828325
1.2454839704
1.2550191525
1.2633127539
1.2703514480
1.2762353737