<VTKFile type="UnstructuredGrid" version="0.1">
	<UnstructuredGrid>
		<Piece NumberOfPoints="13548" NumberOfCells="3387">
			<CellData>
				<DataArray type="Int32" Name="ghost" NumberOfComponents="1" Format="ascii">
1
1
1
1
1
1
1
1
1
1
1
1
1
1
1
1
1
1
1
1
1
1
1
1
1
1
1
1
1
1
1
1
1
1
1
1
1
1
1
1
1
1
1
1
1
1
1
1
1
1
1
1
1
1
1
1
1
1
0
0
0
0
0
0
0
0
0
0
0
0
0
0
0
0
0
0
0
0
1
1
0
0
0
0
0
0
0
0
0
0
0
0
0
0
0
0
0
0
0
0
0
0
0
0
0
0
0
0
0
0
0
0
0
1
1
0
0
0
0
0
0
0
0
0
0
0
0
0
0
0
0
0
0
0
0
1
1
0
0
0
0
0
0
0
0
0
0
0
0
0
0
0
0
0
0
0
0
0
0
0
0
0
0
0
0
0
0
0
0
0
1
1
0
0
0
0
0
0
0
0
0
0
0
0
0
0
0
0
0
0
0
0
1
1
0
0
0
0
0
0
0
0
0
0
0
0
0
0
0
0
0
0
0
0
0
0
0
0
0
0
0
0
0
0
0
0
0
1
1
0
0
0
0
0
0
0
0
0
0
0
0
0
0
0
0
0
0
0
0
1
1
0
0
0
0
0
0
0
0
0
0
0
0
0
0
0
0
0
0
0
0
0
0
0
0
0
0
0
0
0
0
0
0
0
1
1
0
0
0
0
0
0
0
0
0
0
0
0
0
0
0
0
0
0
0
0
1
1
0
0
0
0
0
0
0
0
0
0
0
0
0
0
0
0
0
0
0
0
0
0
0
0
0
0
0
0
0
0
0
0
0
1
1
0
0
0
0
0
0
0
0
0
0
0
0
0
0
0
0
0
0
0
0
1
1
0
0
0
0
0
0
0
0
0
0
0
0
0
0
0
0
0
0
0
0
0
0
0
0
0
0
0
0
0
0
0
0
0
1
1
0
0
0
0
0
0
0
0
0
0
0
0
0
0
0
0
0
0
0
0
1
1
0
0
0
0
0
0
0
0
0
0
0
0
0
0
0
0
0
0
0
0
0
0
0
0
0
0
0
0
0
0
0
0
0
1
1
0
0
0
0
0
0
0
0
0
0
0
0
0
0
0
0
0
0
0
0
1
1
0
0
0
0
0
0
0
0
0
0
0
0
0
0
0
0
0
0
0
0
0
0
0
0
0
0
0
0
0
0
0
0
0
1
1
0
0
0
0
0
0
0
0
0
0
0
0
0
0
0
0
0
0
0
0
1
1
0
0
0
0
0
0
0
0
0
0
0
0
0
0
0
0
0
0
0
0
0
0
0
0
0
0
0
0
0
0
0
0
0
1
1
0
0
0
0
0
0
0
0
0
0
0
0
0
0
0
0
0
0
0
0
1
1
0
0
0
0
0
0
0
0
0
0
0
0
0
0
0
0
0
0
0
0
0
0
0
0
0
0
0
0
0
0
0
0
0
1
1
0
0
0
0
0
0
0
0
0
0
0
0
0
0
0
0
0
0
0
0
1
1
0
0
0
0
0
0
0
0
0
0
0
0
0
0
0
0
0
0
0
0
0
0
0
0
0
0
0
0
0
0
0
0
0
1
1
0
0
0
0
0
0
0
0
0
0
0
0
0
0
0
0
0
0
0
0
1
1
0
0
0
0
0
0
0
0
0
0
0
0
0
0
0
0
0
0
0
0
0
0
0
0
0
0
0
0
0
0
0
0
0
1
1
0
0
0
0
0
0
0
0
0
0
0
0
0
0
0
0
0
0
0
0
1
1
0
0
0
0
0
0
0
0
0
0
0
0
0
0
0
0
0
0
0
0
0
0
0
0
0
0
0
0
0
0
0
0
0
1
1
0
0
0
0
0
0
0
0
0
0
0
0
0
0
0
0
0
0
0
0
1
1
0
0
0
0
0
0
0
0
0
0
0
0
0
0
0
0
0
0
0
0
0
0
0
0
0
0
0
0
0
0
0
0
0
1
1
0
0
0
0
0
0
0
0
0
0
0
0
0
0
0
0
0
0
0
0
1
1
0
0
0
0
0
0
0
0
0
0
0
0
0
0
0
0
0
0
0
0
0
0
0
0
0
0
0
0
0
0
0
0
0
1
1
0
0
0
0
0
0
0
0
0
0
0
0
0
0
0
0
0
0
0
0
1
1
0
0
0
0
0
0
0
0
0
0
0
0
0
0
0
0
0
0
0
0
0
0
0
0
0
0
0
0
0
0
0
0
0
1
1
0
0
0
0
0
0
0
0
0
0
0
0
0
0
0
0
0
0
0
0
1
1
0
0
0
0
0
0
0
0
0
0
0
0
0
0
0
0
0
0
0
0
0
0
0
0
0
0
0
0
0
0
0
0
0
1
1
0
0
0
0
0
0
0
0
0
0
0
0
0
0
0
0
0
0
0
0
1
1
0
0
0
0
0
0
0
0
0
0
0
0
0
0
0
0
0
0
0
0
0
0
0
0
0
0
0
0
0
0
0
0
0
1
1
0
0
0
0
0
0
0
0
0
0
0
0
0
0
0
0
0
0
0
0
1
1
0
0
0
0
0
0
0
0
0
0
0
0
0
0
0
0
0
0
0
0
0
0
0
0
0
0
0
0
0
0
0
0
0
1
1
0
0
0
0
0
0
0
0
0
0
0
0
0
0
0
0
0
0
0
0
1
1
0
0
0
0
0
0
0
0
0
0
0
0
0
0
0
0
0
0
0
0
0
0
0
0
0
0
0
0
0
0
0
0
0
1
1
0
0
0
0
0
0
0
0
0
0
0
0
0
0
0
0
0
0
0
0
1
1
0
0
0
0
0
0
0
0
0
0
0
0
0
0
0
0
0
0
0
0
0
0
0
0
0
0
0
0
0
0
0
0
0
1
1
0
0
0
0
0
0
0
0
0
0
0
0
0
0
0
0
0
0
0
0
1
1
0
0
0
0
0
0
0
0
0
0
0
0
0
0
0
0
0
0
0
0
0
0
0
0
0
0
0
0
0
0
0
0
0
1
1
0
0
0
0
0
0
0
0
0
0
0
0
0
0
0
0
0
0
0
0
1
1
0
0
0
0
0
0
0
0
0
0
0
0
0
0
0
0
0
0
0
0
0
0
0
0
0
0
0
0
0
0
0
0
0
1
1
0
0
0
0
0
0
0
0
0
0
0
0
0
0
0
0
0
0
0
0
1
1
0
0
0
0
0
0
0
0
0
0
0
0
0
0
0
0
0
0
0
0
0
0
0
0
0
0
0
0
0
0
0
0
0
1
1
0
0
0
0
0
0
0
0
0
0
0
0
0
0
0
0
0
0
0
0
0
1
1
0
0
0
0
0
0
0
0
0
0
0
0
0
0
0
0
0
0
0
0
0
0
0
0
0
0
0
0
0
0
0
0
0
0
1
1
0
0
0
0
0
0
0
0
0
0
0
0
0
0
0
0
0
0
0
0
0
0
0
0
0
0
0
0
0
0
0
0
0
0
0
0
0
0
0
0
0
0
0
0
0
0
0
0
0
0
0
0
0
0
0
0
0
1
1
0
0
0
0
0
0
0
0
0
0
0
0
0
0
0
0
0
0
0
0
0
0
0
0
0
0
0
0
0
0
0
0
0
0
0
0
0
0
0
0
0
0
0
0
0
0
0
0
0
0
0
0
0
0
0
0
0
1
1
0
0
0
0
0
0
0
0
0
0
0
0
0
0
0
0
0
0
0
0
0
0
0
0
0
0
0
0
0
0
0
0
0
0
0
0
0
0
0
0
0
0
0
0
0
0
0
0
0
0
0
0
0
0
0
0
0
1
1
0
0
0
0
0
0
0
0
0
0
0
0
0
0
0
0
0
0
0
0
0
0
0
0
0
0
0
0
0
0
0
0
0
0
0
0
0
0
0
0
0
0
0
0
0
0
0
0
0
0
0
0
0
0
0
0
0
1
1
0
0
0
0
0
0
0
0
0
0
0
0
0
0
0
0
0
0
0
0
0
0
0
0
0
0
0
0
0
0
0
0
0
0
0
0
0
0
0
0
0
0
0
0
0
0
0
0
0
0
0
0
0
0
0
0
0
1
1
0
0
0
0
0
0
0
0
0
0
0
0
0
0
0
0
0
0
0
0
0
0
0
0
0
0
0
0
0
0
0
0
0
0
0
0
0
0
0
0
0
0
0
0
0
0
0
0
0
0
0
0
0
0
0
0
0
1
1
0
0
0
0
0
0
0
0
0
0
0
0
0
0
0
0
0
0
0
0
0
0
0
0
0
0
0
0
0
0
0
0
0
0
0
0
0
0
0
0
0
0
0
0
0
0
0
0
0
0
0
0
0
0
0
0
0
1
1
0
0
0
0
0
0
0
0
0
0
0
0
0
0
0
0
0
0
0
0
0
0
0
0
0
0
0
0
0
0
0
0
0
0
0
0
0
0
0
0
0
0
0
0
0
0
0
0
0
0
0
0
0
0
0
0
0
1
1
0
0
0
0
0
0
0
0
0
0
0
0
0
0
0
0
0
0
0
0
0
0
0
0
0
0
0
0
0
0
0
0
0
0
0
0
0
0
0
0
0
0
0
0
0
0
0
0
0
0
0
0
0
0
0
0
0
1
1
0
0
0
0
0
0
0
0
0
0
0
0
0
0
0
0
0
0
0
0
0
0
0
0
0
0
0
0
0
0
0
0
0
0
0
0
0
0
0
0
0
0
0
0
0
0
0
0
0
0
0
0
0
0
0
0
0
1
1
0
0
0
0
0
0
0
0
0
0
0
0
0
0
0
0
0
0
0
0
0
1
1
0
0
0
0
0
0
0
0
0
0
0
0
0
0
0
0
0
0
0
0
0
0
0
0
0
0
0
0
0
0
0
0
0
0
1
1
0
0
0
0
0
0
0
0
0
0
0
0
0
0
0
0
0
0
0
0
1
1
0
0
0
0
0
0
0
0
0
0
0
0
0
0
0
0
0
0
0
0
0
0
0
0
0
0
0
0
0
0
0
0
0
1
1
0
0
0
0
0
0
0
0
0
0
0
0
0
0
0
0
0
0
0
0
1
1
0
0
0
0
0
0
0
0
0
0
0
0
0
0
0
0
0
0
0
0
0
0
0
0
0
0
0
0
0
0
0
0
0
1
1
0
0
0
0
0
0
0
0
0
0
0
0
0
0
0
0
0
0
0
0
1
1
0
0
0
0
0
0
0
0
0
0
0
0
0
0
0
0
0
0
0
0
0
0
0
0
0
0
0
0
0
0
0
0
0
1
1
0
0
0
0
0
0
0
0
0
0
0
0
0
0
0
0
0
0
0
0
1
1
0
0
0
0
0
0
0
0
0
0
0
0
0
0
0
0
0
0
0
0
0
0
0
0
0
0
0
0
0
0
0
0
0
1
1
0
0
0
0
0
0
0
0
0
0
0
0
0
0
0
0
0
0
0
0
1
1
0
0
0
0
0
0
0
0
0
0
0
0
0
0
0
0
0
0
0
0
0
0
0
0
0
0
0
0
0
0
0
0
0
1
1
0
0
0
0
0
0
0
0
0
0
0
0
0
0
0
0
0
0
0
0
1
1
0
0
0
0
0
0
0
0
0
0
0
0
0
0
0
0
0
0
0
0
0
0
0
0
0
0
0
0
0
0
0
0
0
1
1
0
0
0
0
0
0
0
0
0
0
0
0
0
0
0
0
0
0
0
0
1
1
0
0
0
0
0
0
0
0
0
0
0
0
0
0
0
0
0
0
0
0
0
0
0
0
0
0
0
0
0
0
0
0
0
1
1
0
0
0
0
0
0
0
0
0
0
0
0
0
0
0
0
0
0
0
0
1
1
0
0
0
0
0
0
0
0
0
0
0
0
0
0
0
0
0
0
0
0
0
0
0
0
0
0
0
0
0
0
0
0
0
1
1
0
0
0
0
0
0
0
0
0
0
0
0
0
0
0
0
0
0
0
0
1
1
0
0
0
0
0
0
0
0
0
0
0
0
0
0
0
0
0
0
0
0
0
0
0
0
0
0
0
0
0
0
0
0
0
1
1
0
0
0
0
0
0
0
0
0
0
0
0
0
0
0
0
0
0
0
0
1
1
0
0
0
0
0
0
0
0
0
0
0
0
0
0
0
0
0
0
0
0
0
0
0
0
0
0
0
0
0
0
0
0
0
1
1
0
0
0
0
0
0
0
0
0
0
0
0
0
0
0
0
0
0
0
0
1
1
0
0
0
0
0
0
0
0
0
0
0
0
0
0
0
0
0
0
0
0
0
0
0
0
0
0
0
0
0
0
0
0
0
1
1
0
0
0
0
0
0
0
0
0
0
0
0
0
0
0
0
0
0
0
0
1
1
0
0
0
0
0
0
0
0
0
0
0
0
0
0
0
0
0
0
0
0
0
0
0
0
0
0
0
0
0
0
0
0
0
1
1
0
0
0
0
0
0
0
0
0
0
0
0
0
0
0
0
0
0
0
0
1
1
0
0
0
0
0
0
0
0
0
0
0
0
0
0
0
0
0
0
0
0
0
0
0
0
0
0
0
0
0
0
0
0
0
1
1
0
0
0
0
0
0
0
0
0
0
0
0
0
0
0
0
0
0
0
0
1
1
0
0
0
0
0
0
0
0
0
0
0
0
0
0
0
0
0
0
0
0
0
0
0
0
0
0
0
0
0
0
0
0
0
1
1
0
0
0
0
0
0
0
0
0
0
0
0
0
0
0
0
0
0
0
0
1
1
0
0
0
0
0
0
0
0
0
0
0
0
0
0
0
0
0
0
0
0
0
0
0
0
0
0
0
0
0
0
0
0
0
1
1
0
0
0
0
0
0
0
0
0
0
0
0
0
0
0
0
0
0
0
0
1
1
0
0
0
0
0
0
0
0
0
0
0
0
0
0
0
0
0
0
0
0
0
0
0
0
0
0
0
0
0
0
0
0
0
1
1
0
0
0
0
0
0
0
0
0
0
0
0
0
0
0
0
0
0
0
0
1
1
0
0
0
0
0
0
0
0
0
0
0
0
0
0
0
0
0
0
0
0
0
0
0
0
0
0
0
0
0
0
0
0
0
1
1
0
0
0
0
0
0
0
0
0
0
0
0
0
0
0
0
0
0
0
0
1
1
0
0
0
0
0
0
0
0
0
0
0
0
0
0
0
0
0
0
0
0
0
0
0
0
0
0
0
0
0
0
0
0
0
1
1
0
0
0
0
0
0
0
0
0
0
0
0
0
0
0
0
0
0
0
0
1
1
0
0
0
0
0
0
0
0
0
0
0
0
0
0
0
0
0
0
0
0
0
0
0
0
0
0
0
0
0
0
0
0
0
1
1
0
0
0
0
0
0
0
0
0
0
0
0
0
0
0
0
0
0
0
0
1
1
0
0
0
0
0
0
0
0
0
0
0
0
0
0
0
0
0
0
0
0
0
0
0
0
0
0
0
0
0
0
0
0
0
1
1
0
0
0
0
0
0
0
0
0
0
0
0
0
0
0
0
0
0
0
0
1
1
0
0
0
0
0
0
0
0
0
0
0
0
0
0
0
0
0
0
0
0
0
0
0
0
0
0
0
0
0
0
0
0
0
1
1
1
1
1
1
1
1
1
1
1
1
1
1
1
1
1
1
1
1
1
1
1
1
1
1
1
1
1
1
1
1
1
1
1
1
1
1
1
1
1
1
1
1
1
1
1
1
1
1
1
1
1
1
1
1
1
1
				</DataArray>
				<DataArray type="Float64" Name="h" NumberOfComponents="1" Format="ascii">
1.0352309448
1.0360548323
1.0365629570
1.0375641016
1.0390286589
1.0409138381
1.0431652713
1.0457191991
1.0485049995
1.0514474472
1.0544692765
1.0574935977
1.0604456671
1.0632548422
1.0658562434
1.0681918247
1.0702115975
1.0718744354
1.0731482045
1.0740096833
1.0744440313
1.0744440313
1.3188550308
1.3193891862
1.3189863594
1.3182018389
1.3170754730
1.3156638865
1.3140359399
1.3122661815
1.3104291840
1.3085934932
1.3068166548
1.3051429012
1.3036026951
1.3022144237
1.3009873408
1.2999253848
1.2990316065
1.2983113067
1.2977747935
1.2974395859
1.2973300004
1.2974758023
1.2979096184
1.2986612174
1.2997506267
1.3011802023
1.3029253382
1.3049268745
1.3070871231
1.3092714002
1.3113173331
1.3130518505
1.3143140308
1.3149792497
1.3149792497
1.0360548323
1.0370432614
1.0375459248
1.0385359304
1.0399832797
1.0418447584
1.0440656824
1.0465822084
1.0493239890
1.0522164883
1.0551835387
1.0581497148
1.0610420109
1.0637916909
1.0663358335
1.0686182978
1.0705908713
1.0722139882
1.0734568041
1.0742970950
1.0747206854
1.0744440313
1.3193891862
1.3197732756
1.3193420410
1.3185006671
1.3172892031
1.3157651138
1.3139992316
1.3120695961
1.3100559151
1.3080333938
1.3060673400
1.3042102476
1.3025007207
1.3009645844
1.2996174235
1.2984682092
1.2975236815
1.2967916019
1.2962836834
1.2960179297
1.2960183084
1.2963133339
1.2969332366
1.2979039037
1.2992395599
1.3009345033
1.3029538398
1.3052263570
1.3076416137
1.3100529770
1.3122883502
1.3141681044
1.3155279189
1.3162420129
1.3149792497
1.0367730650
1.0377691632
1.0382666919
1.0392465100
1.0406787959
1.0425206285
1.0447177571
1.0472069232
1.0499185118
1.0527788443
1.0557126923
1.0586455949
1.0615054811
1.0642244682
1.0667403699
1.0689976500
1.0709485746
1.0725539484
1.0737832117
1.0746143516
1.0750333320
1.0747479757
1.3189836553
1.3193422722
1.3189208859
1.3180984620
1.3169136257
1.3154218903
1.3136918215
1.3117991280
1.3098213867
1.3078320868
1.3058953709
1.3040631615
1.3023740271
1.3008541635
1.2995197749
1.2983805377
1.2974438462
1.2967179699
1.2962149255
1.2959528017
1.2959554481
1.2962511021
1.2968696311
1.2978365594
1.2991658485
1.3008517370
1.3028595507
1.3051186182
1.3075193458
1.3099161679
1.3121381479
1.3140067623
1.3153586091
1.3160685539
1.3147961873
1.0381960911
1.0392059291
1.0396932892
1.0406529542
1.0420554927
1.0438586154
1.0460089806
1.0484445307
1.0510971251
1.0538947833
1.0567641125
1.0596325155
1.0624297096
1.0650894316
1.0675508805
1.0697596547
1.0716689160
1.0732401628
1.0744433710
1.0752569246
1.0756670482
1.0753643418
1.3181751554
1.3184821470
1.3180798820
1.3172942697
1.3161612008
1.3147324395
1.3130721874
1.3112516553
1.3093442927
1.3074202474
1.3055413713
1.3037584385
1.3021099066
1.3006226546
1.2993140636
1.2981951632
1.2972746113
1.2965616601
1.2960689127
1.2958146145
1.2958223706
1.2961198574
1.2967362087
1.2976962119
1.2990132876
1.3006815367
1.3026667063
1.3048991902
1.3072710794
1.3096389456
1.3118341864
1.3136805151
1.3150163983
1.3157180222
1.3144257308
1.0402967005
1.0413232492
1.0417956318
1.0427256659
1.0440845910
1.0458311686
1.0479135179
1.0502714487
1.0528390468
1.0555468317
1.0583240544
1.0611007505
1.0638091233
1.0663851293
1.0687698443
1.0709103905
1.0727611290
1.0742844880
1.0754511653
1.0762400802
1.0766378031
1.0763093689
1.3169695005
1.3171977102
1.3168226901
1.3160895729
1.3150304314
1.3136917812
1.3121316974
1.3104150468
1.3086094221
1.3067801863
1.3049858598
1.3032754873
1.3016872693
1.3002489730
1.2989795937
1.2978920535
1.2969967936
1.2963044585
1.2958284753
1.2955872896
1.2956041166
1.2959057721
1.2965202676
1.2974712564
1.2987713089
1.3004142741
1.3023664817
1.3045598809
1.3068890649
1.3092138147
1.3113690659
1.3131819515
1.3144938189
1.3151829056
1.3138589387
1.0430342354
1.0440761684
1.0445291548
1.0454209093
1.0467237076
1.0483978814
1.0503936501
1.0526534080
1.0551142122
1.0577098110
1.0603727680
1.0630363327
1.0656356723
1.0681093359
1.0704005543
1.0724581790
1.0742379263
1.0757032800
1.0768257651
1.0775849110
1.0779676672
1.0776058663
1.3153746253
1.3154961392
1.3151548359
1.3144867651
1.3135194157
1.3122929777
1.3108581066
1.3092719360
1.3075948549
1.3058862649
1.3042004480
1.3025841470
1.3010750729
1.2997019405
1.2984856343
1.2974413524
1.2965817100
1.2959190561
1.2954678117
1.2952466203
1.2952781297
1.2955879679
1.2962026057
1.2971441265
1.2984238942
1.3000353333
1.3019454585
1.3040882126
1.3063614789
1.3086293234
1.3107314674
1.3124997251
1.3137794322
1.3144516937
1.3130822069
1.0463546603
1.0474055513
1.0478353282
1.0486814145
1.0499175720
1.0515063157
1.0534006778
1.0555463769
1.0578841426
1.0603515591
1.0628849838
1.0654212210
1.0678986149
1.0702584163
1.0724460490
1.0744120984
1.0761136356
1.0775152123
1.0785892010
1.0793157455
1.0796821421
1.0792808881
1.3134003409
1.3133874652
1.3130842781
1.3124898682
1.3116267593
1.3105282504
1.3092368574
1.3078011507
1.3062734486
1.3047063617
1.3031492167
1.3016459205
1.3002333795
1.2989411575
1.2977921098
1.2968039049
1.2959915598
1.2953693117
1.2949526516
1.2947603533
1.2948142708
1.2951384753
1.2957574339
1.2966911708
1.2979494192
1.2995249305
1.3013854257
1.3034672109
1.3056722056
1.3078698410
1.3099059290
1.3116183306
1.3128576041
1.3135086540
1.3120771231
1.0501911435
1.0512391553
1.0516427711
1.0524375619
1.0535992868
1.0550933154
1.0568762320
1.0588977907
1.0611029919
1.0634336897
1.0658302808
1.0682331924
1.0705838737
1.0728261159
1.0749073400
1.0767796824
1.0784014311
1.0797381205
1.0807629164
1.0814565098
1.0818064292
1.0813623650
1.3110590298
1.3108859652
1.3106228944
1.3101061903
1.3093534530
1.3083910854
1.3072533757
1.3059801313
1.3046152851
1.3032042474
1.3017909287
1.3004159564
1.2991150672
1.2979184268
1.2968507440
1.2959321425
1.2951800777
1.2946107021
1.2942405317
1.2940883127
1.2941748108
1.2945221110
1.2951521524
1.2960823398
1.2973202677
1.2988576679
1.3006628900
1.3026748850
1.3048003019
1.3069150188
1.3088723102
1.3105175742
1.3117079821
1.3123333121
1.3108200655
1.0544660458
1.0554942446
1.0558698797
1.0566100249
1.0576929613
1.0590875794
1.0607547075
1.0626487396
1.0647193773
1.0669129506
1.0691738727
1.0714459781
1.0736734743
1.0758022892
1.0777814510
1.0795643228
1.0811101782
1.0823853897
1.0833638129
1.0840265487
1.0843611428
1.0838750259
1.3083645271
1.3080094898
1.3077859774
1.3073461374
1.3067031054
1.3058769385
1.3048942438
1.3037865121
1.3025895662
1.3013416824
1.3000812164
1.2988452296
1.2976679297
1.2965797262
1.2956068800
1.2947717409
1.2940940303
1.2935916592
1.2932819755
1.2931834250
1.2933152991
1.2936971914
1.2943479126
1.2952816043
1.2965031162
1.2980027039
1.2997491518
1.3016842359
1.3037199625
1.3057397342
1.3076057315
1.3091725196
1.3103054498
1.3109004124
1.3092823798
1.0590930491
1.0600803113
1.0604275247
1.0611124077
1.0621162361
1.0634119943
1.0649653061
1.0667356177
1.0686775229
1.0707417647
1.0728764697
1.0750283971
1.0771439348
1.0791705625
1.0810584016
1.0827616474
1.0842402989
1.0854614129
1.0863994115
1.0870356033
1.0873572036
1.0868352812
1.3053322871
1.3047797941
1.3045927187
1.3042239869
1.3036831081
1.3029848475
1.3021492626
1.3012005908
1.3001674107
1.2990814397
1.2979757243
1.2968837060
1.2958377839
1.2948682009
1.2940023189
1.2932642805
1.2926756814
1.2922558290
1.2920225338
1.2919935278
1.2921861332
1.2926168555
1.2933006949
1.2942477984
1.2954595654
1.2969242034
1.2986106166
1.3004634743
1.3024006904
1.3043142540
1.3060767596
1.3075537084
1.3086203819
1.3091801940
1.3074309826
1.0639803917
1.0649028183
1.0652227167
1.0658547518
1.0667835369
1.0679865363
1.0694344812
1.0710920064
1.0729184954
1.0748687499
1.0768940428
1.0789433585
1.0809645303
1.0829059138
1.0847181805
1.0863559805
1.0877798206
1.0889573314
1.0898633851
1.0904792226
1.0907912023
1.0902462539
1.3019808663
1.3012237916
1.3010675776
1.3007594778
1.3003065345
1.2997196925
1.2990140902
1.2982083247
1.2973251552
1.2963908349
1.2954337810
1.2944840691
1.2935721724
1.2927277771
1.2919787948
1.2913505448
1.2908658833
1.2905449264
1.2904053772
1.2904636760
1.2907345542
1.2912307380
1.2919626551
1.2929356499
1.2941468798
1.2955818294
1.2972090923
1.2989761865
1.3008073958
1.3026043247
1.3042515317
1.3056273406
1.3066188789
1.3071386577
1.3052290596
1.0690353661
1.0698680611
1.0701633437
1.0707480242
1.0716101963
1.0727319148
1.0740890085
1.0756510979
1.0773819291
1.0792397259
1.0811781223
1.0831474895
1.0850963152
1.0869731730
1.0887288157
1.0903180766
1.0917018626
1.0928483522
1.0937327744
1.0943359372
1.0946425672
1.0940941964
1.2983312915
1.2973723105
1.2972391718
1.2969769747
1.2965917009
1.2960922581
1.2954908780
1.2948025827
1.2940462295
1.2932442003
1.2924214184
1.2916052103
1.2908242386
1.2901073293
1.2894823407
1.2889749929
1.2886085669
1.2884031579
1.2883755678
1.2885401869
1.2889084024
1.2894883837
1.2902851677
1.2912984447
1.2925202902
1.2939327239
1.2955035107
1.2971828735
1.2989018349
1.3005725869
1.3020932057
1.3033567918
1.3042643526
1.3047391945
1.3026382999
1.0741680743
1.0748870331
1.0751618852
1.0757075409
1.0765154641
1.0775720758
1.0788579182
1.0803470263
1.0820067602
1.0837978877
1.0856754754
1.0875904046
1.0894910835
1.0913257758
1.0930450180
1.0946037329
1.0959632734
1.0970924437
1.0979667585
1.0985661066
1.0988724713
1.0983463937
1.2944082739
1.2932604875
1.2931407330
1.2929060638
1.2925629913
1.2921203725
1.2915898083
1.2909851534
1.2903236924
1.2896259785
1.2889150244
1.2882164104
1.2875573775
1.2869657206
1.2864686230
1.2860912848
1.2858563483
1.2857828012
1.2858855108
1.2861758690
1.2866610438
1.2873438124
1.2882229932
1.2892917877
1.2905363687
1.2919345458
1.2934527018
1.2950435527
1.2966451383
1.2981811223
1.2995645928
1.3007053661
1.3015203914
1.3019455173
1.2996225827
1.0792953483
1.0798792050
1.0801390354
1.0806562938
1.0814254297
1.0824366508
1.0836744470
1.0851163421
1.0867322840
1.0884845360
1.0903286223
1.0922151308
1.0940918242
1.0959063543
1.0976089853
1.0991548522
1.1005059623
1.1016319164
1.1025084452
1.1031138749
1.1034258963
1.1029521817
1.2902432927
1.2889298696
1.2888121957
1.2885836535
1.2882530099
1.2878311656
1.2873315225
1.2867694202
1.2861632279
1.2855341047
1.2849051520
1.2843015849
1.2837498954
1.2832768234
1.2829082471
1.2826677799
1.2825761231
1.2826497957
1.2829004456
1.2833353316
1.2839564275
1.2847602729
1.2857386976
1.2868776805
1.2881567822
1.2895489437
1.2910186536
1.2925208908
1.2940009099
1.2953946062
1.2966314314
1.2976397197
1.2983543184
1.2987252988
1.2961524085
1.0843443101
1.0847757275
1.0850267786
1.0855277920
1.0862755598
1.0872631694
1.0884779523
1.0898997031
1.0914997321
1.0932406762
1.0950776009
1.0969601716
1.0988351937
1.1006496906
1.1023538643
1.1039033934
1.1052612809
1.1063981519
1.1072898595
1.1079123468
1.1082369338
1.1078474033
1.2858751892
1.2844280241
1.2842998253
1.2840536957
1.2837024821
1.2832612357
1.2827476489
1.2821813536
1.2815847094
1.2809822354
1.2803994783
1.2798630016
1.2793994690
1.2790346613
1.2787924887
1.2786937407
1.2787556148
1.2789905100
1.2794053173
1.2800018585
1.2807758808
1.2817168972
1.2828091248
1.2840307922
1.2853543643
1.2867474539
1.2881722817
1.2895859086
1.2909409414
1.2921861035
1.2932683173
1.2941359477
1.2947434160
1.2950564764
1.2922119936
1.0892537143
1.0895202843
1.0897691731
1.0902667274
1.0910112312
1.0919974880
1.0932143141
1.0946423626
1.0962529899
1.0980081168
1.0998615884
1.1017617672
1.1036544856
1.1054864122
1.1072081338
1.1087763597
1.1101555000
1.1113174373
1.1122380153
1.1128898185
1.1132351354
1.1129604334
1.2813532156
1.2798107383
1.2796583925
1.2793694057
1.2789625830
1.2784591358
1.2778834989
1.2772624822
1.2766255159
1.2760034798
1.2754270054
1.2749259772
1.2745283307
1.2742590429
1.2741393101
1.2741856529
1.2744099173
1.2748184360
1.2754115663
1.2761842554
1.2771249925
1.2782156098
1.2794323310
1.2807454239
1.2821201194
1.2835185606
1.2849005701
1.2862252336
1.2874526108
1.2885446444
1.2894664743
1.2901875424
1.2906830345
1.2909354448
1.2878080090
1.0939746073
1.0940692247
1.0943224782
1.0948291060
1.0955879039
1.0965940778
1.0978364426
1.0992950324
1.1009399602
1.1027314739
1.1046216586
1.1065574703
1.1084840346
1.1103481744
1.1121014660
1.1137022023
1.1151166013
1.1163179921
1.1172820512
1.1179769642
1.1183527758
1.1182197331
1.2767416566
1.2751459159
1.2749550134
1.2745971570
1.2740989427
1.2734894949
1.2728022944
1.2720742159
1.2713449489
1.2706549082
1.2700426533
1.2695435379
1.2691879690
1.2690002667
1.2689980349
1.2691918480
1.2695860661
1.2701787331
1.2709616976
1.2719215139
1.2730384469
1.2742862052
1.2756329635
1.2770412268
1.2784692972
1.2798741212
1.2812133260
1.2824481515
1.2835461940
1.2844827565
1.2852414674
1.2858132465
1.2861945415
1.2863850546
1.2829775204
1.0984697952
1.0983905380
1.0986541910
1.0991814176
1.0999705124
1.1010157459
1.1023044560
1.1038146489
1.1055140455
1.1073604696
1.1093039548
1.1112901956
1.1132640830
1.1151732350
1.1169708608
1.1186173489
1.1200810335
1.1213368004
1.1223600247
1.1231135674
1.1235316252
1.1235614045
1.2721201511
1.2705134080
1.2702689801
1.2698166091
1.2691922296
1.2684341095
1.2675867779
1.2666999685
1.2658268423
1.2650206065
1.2643306953
1.2638001520
1.2634630628
1.2633431602
1.2634534128
1.2637965450
1.2643670520
1.2651522590
1.2661334120
1.2672871549
1.2685847025
1.2699914731
1.2714679203
1.2729694468
1.2744482283
1.2758567586
1.2771510565
1.2782948697
1.2792634026
1.2800451672
1.2806419748
1.2810658300
1.2813340745
1.2814633429
1.2777958728
1.1027113253
1.1024609858
1.1027402834
1.1032980862
1.1041312408
1.1052318496
1.1065844472
1.1081637972
1.1099343090
1.1118508758
1.1138614153
1.1159106767
1.1179438787
1.1199100682
1.1217646416
1.1234704449
1.1249980707
1.1263239660
1.1274231621
1.1282526474
1.1287271146
1.1289343836
1.2675844783
1.2660055624
1.2656922346
1.2651215905
1.2643396058
1.2633939750
1.2623417782
1.2612481911
1.2601829751
1.2592153524
1.2584085547
1.2578154882
1.2574750389
1.2574102964
1.2576283973
1.2581221584
1.2588737013
1.2598571362
1.2610410328
1.2623907228
1.2638677673
1.2654294486
1.2670292258
1.2686165179
1.2701386607
1.2715448983
1.2727906015
1.2738425914
1.2746837183
1.2753152181
1.2757561371
1.2760382889
1.2761985780
1.2762694689
1.2723807720
1.1066781024
1.1062635075
1.1065627198
1.1071592086
1.1080475852
1.1092167756
1.1106474561
1.1123102307
1.1141655691
1.1161651785
1.1182549711
1.1203791410
1.1224837584
1.1245197973
1.1264451841
1.1282253366
1.1298330023
1.1312460328
1.1324391975
1.1333637392
1.1339117113
1.1343048079
1.2632445473
1.2617252594
1.2613271993
1.2606185385
1.2596539047
1.2584891219
1.2571946027
1.2558532117
1.2545542264
1.2533859192
1.2524280575
1.2517453938
1.2513825584
1.2513618018
1.2516831556
1.2523274760
1.2532620891
1.2544455569
1.2558319288
1.2573740907
1.2590236524
1.2607302523
1.2624414394
1.2641021487
1.2656565503
1.2670522004
1.2682450679
1.2692057502
1.2699246962
1.2704150148
1.2707113834
1.2708632725
1.2709248741
1.2709425736
1.2668883762
1.1103529625
1.1097841958
1.1101065196
1.1107477823
1.1116998106
1.1129476682
1.1144674890
1.1162251762
1.1181769659
1.1202713708
1.1224525415
1.1246645104
1.1268546050
1.1289760078
1.1309892326
1.1328620478
1.1345688894
1.1360885400
1.1373955813
1.1384364947
1.1390788675
1.1396607547
1.2592131888
1.2577752309
1.2572757058
1.2564165170
1.2552547889
1.2538507749
1.2522881266
1.2506692196
1.2491053997
1.2477066338
1.2465715524
1.2457783503
1.2453780487
1.2453917142
1.2458110439
1.2466031238
1.2477184554
1.2490982067
1.2506805715
1.2524053231
1.2542142258
1.2560501021
1.2578559533
1.2595739744
1.2611470639
1.2625228386
1.2636592368
1.2645313491
1.2651370144
1.2654999863
1.2656683707
1.2657063837
1.2656824346
1.2656542537
1.2615027106
1.1137195408
1.1130092151
1.1133566922
1.1140466618
1.1150679103
1.1164013451
1.1180183146
1.1198799173
1.1219382384
1.1241388656
1.1264245916
1.1287397210
1.1310331798
1.1332604865
1.1353845455
1.1373748688
1.1392065468
1.1408580809
1.1423033385
1.1434855901
1.1442483622
1.1450183601
1.2555898372
1.2542428177
1.2536230074
1.2526130425
1.2512560055
1.2496096532
1.2477699962
1.2458603229
1.2440160813
1.2423709269
1.2410439724
1.2401278062
1.2396800403
1.2397200662
1.2402302344
1.2411626070
1.2424496188
1.2440140860
1.2457778583
1.2476676249
1.2496159159
1.2515598836
1.2534395069
1.2551960474
1.2567730272
1.2581198325
1.2591976616
1.2599866680
1.2604916320
1.2607453641
1.2608067225
1.2607512160
1.2606578664
1.2605927424
1.2564172874
1.1167614772
1.1159241199
1.1162975100
1.1170377212
1.1181305576
1.1195528942
1.1212715212
1.1232431035
1.1254160890
1.1277337785
1.1301383253
1.1325750168
1.1349949746
1.1373563947
1.1396244480
1.1417695182
1.1437654245
1.1455873681
1.1472053945
1.1485595527
1.1494725550
1.1504298534
1.2524337055
1.2511750232
1.2504119220
1.2492719548
1.2477456330
1.2458778050
1.2437757146
1.2415846777
1.2394656012
1.2375768751
1.2360586774
1.2350180401
1.2345188108
1.2345781421
1.2351684980
1.2362266125
1.2376668500
1.2393940335
1.2413143670
1.2433423913
1.2454025911
1.2474278610
1.2493567028
1.2511311063
1.2526968728
1.2540065873
1.2550257032
1.2557397057
1.2561595655
1.2563252596
1.2563034303
1.2561771668
1.2560322907
1.2559400578
1.2518110689
1.1194634558
1.1185149937
1.1189136095
1.1197028516
1.1208658804
1.1223760366
1.1241962040
1.1262794298
1.1285714902
1.1310145188
1.1335513311
1.1361296723
1.1387044673
1.1412381793
1.1436993943
1.1460592584
1.1482875775
1.1503490410
1.1521969829
1.1537531516
1.1548135704
1.1559670149
1.2497199223
1.2485384826
1.2476023300
1.2463919626
1.2447603458
1.2427267382
1.2404093370
1.2379766479
1.2356157402
1.2335097466
1.2318193575
1.2306651818
1.2301165121
1.2301878866
1.2308421914
1.2320019015
1.2335649555
1.2354201936
1.2374602810
1.2395895572
1.2417262195
1.2438004815
1.2457507722
1.2475211271
1.2490608314
1.2503266164
1.2512887226
1.2519378249
1.2522900158
1.2523903401
1.2523101691
1.2521364958
1.2519582405
1.2518488254
1.2478259099
1.1218151394
1.1207724586
1.1211940971
1.1220282287
1.1232558933
1.1248476300
1.1267633214
1.1289534704
1.1313624324
1.1339326951
1.1366097378
1.1393465017
1.1421055087
1.1448585979
1.1475840460
1.1502600877
1.1528553918
1.1553145815
1.1575311367
1.1592858095
1.1600724271
1.1614776296
1.2472795803
1.2461755578
1.2450059380
1.2438654319
1.2422630219
1.2401761135
1.2377366002
1.2351397863
1.2326008520
1.2303279620
1.2285015366
1.2272546689
1.2266614566
1.2267341453
1.2274276142
1.2286528130
1.2302947009
1.2322298249
1.2343407551
1.2365244548
1.2386949906
1.2407814541
1.2427232868
1.2444673801
1.2459671077
1.2471836956
1.2480921543
1.2486877645
1.2489903921
1.2490479615
1.2489336282
1.2487348950
1.2485404474
1.2484231924
1.2445496599
1.1238176962
1.1226981859
1.1231393696
1.1240117379
1.1252947866
1.1269570147
1.1289561619
1.1312410999
1.1337557284
1.1364440644
1.1392560453
1.1421529315
1.1451105853
1.1481208843
1.1511914489
1.1543439153
1.1576136025
1.1610537670
1.1647482697
1.1688389130
1.1735835318
1.1798127547
1.2020021482
1.2041603358
1.2415526241
1.2409481371
1.2414361414
1.2412180219
1.2400834594
1.2381952441
1.2357957835
1.2331499748
1.2305192501
1.2281434182
1.2262240924
1.2249066312
1.2242699860
1.2243253686
1.2250224848
1.2262649354
1.2279295653
1.2298855183
1.2320095632
1.2341945663
1.2363526840
1.2384131870
1.2403171494
1.2420145356
1.2434627790
1.2446273522
1.2454875015
1.2460421464
1.2463133947
1.2463499031
1.2462239343
1.2460205604
1.2458254232
1.2457086920
1.2420090888
1.1254870160
1.1243080866
1.1247646101
1.1256671043
1.1269940616
1.1287125791
1.1307788125
1.1331402992
1.1357403168
1.1385236144
1.1414430077
1.1444654169
1.1475757081
1.1507784970
1.1540976295
1.1575733708
1.1612595361
1.1652229109
1.1695491969
1.1743661303
1.1799215506
1.1869829449
1.2007948192
1.2027889680
1.2330289915
1.2370438042
1.2389177198
1.2393889912
1.2386531250
1.2369826245
1.2346801858
1.2320537974
1.2293966320
1.2269713388
1.2249950270
1.2236220883
1.2229355036
1.2229469188
1.2236043831
1.2248090886
1.2264352653
1.2283499357
1.2304284813
1.2325628446
1.2346651856
1.2366658048
1.2385075164
1.2401430333
1.2415332914
1.2426473013
1.2434676366
1.2439956475
1.2442541045
1.2442904128
1.2441736377
1.2439840163
1.2438019176
1.2436930428
1.2401735744
1.1268511119
1.1256298578
1.1260973028
1.1270213847
1.1283801110
1.1301397531
1.1322553016
1.1346729806
1.1373348195
1.1401848133
1.1431761388
1.1462776428
1.1494780304
1.1527878017
1.1562381553
1.1598769716
1.1637640935
1.1679683548
1.1725730049
1.1777053128
1.1836279022
1.1910183978
1.2021043770
1.2087263233
1.2302406994
1.2358808578
1.2382530420
1.2389305106
1.2383196775
1.2367284857
1.2344676082
1.2318513644
1.2291795714
1.2267208518
1.2246968308
1.2232646483
1.2225088929
1.2224423029
1.2230142545
1.2241279068
1.2256596939
1.2274789976
1.2294633810
1.2315062568
1.2335210050
1.2354392104
1.2372050611
1.2387733007
1.2401074868
1.2411792197
1.2419733264
1.2424923181
1.2427581440
1.2428152349
1.2427275754
1.2425687052
1.2424120494
1.2423175693
1.2389685971
1.1279436985
1.1266967594
1.1271707656
1.1281080275
1.1294866108
1.1312725917
1.1334203105
1.1358748463
1.1385765938
1.1414676949
1.1444997939
1.1476409851
1.1508804413
1.1542306795
1.1577262375
1.1614190627
1.1653728944
1.1696587768
1.1743592415
1.1795974634
1.1856188958
1.1929634425
1.2026883918
1.2112641324
1.2280523036
1.2348931926
1.2379635886
1.2389747671
1.2385404035
1.2370507509
1.2348473954
1.2322571939
1.2295853296
1.2271027449
1.2250320717
1.2235311894
1.2226861844
1.2225125069
1.2229637657
1.2239486083
1.2253491933
1.2270402632
1.2289037206
1.2308357003
1.2327511784
1.2345827284
1.2362752544
1.2377846748
1.2390762389
1.2401232128
1.2409116648
1.2414441171
1.2417404328
1.2418406669
1.2418022633
1.2416906957
1.2415712577
1.2414972851
1.2382969042
1.1287962416
1.1275397947
1.1280160788
1.1289582863
1.1303451305
1.1321432304
1.1343069979
1.1367808697
1.1395037266
1.1424154766
1.1454652937
1.1486190897
1.1518647216
1.1552147769
1.1587053164
1.1623910249
1.1663390423
1.1706230499
1.1753251014
1.1805604955
1.1865457598
1.1937114901
1.2026773953
1.2118970339
1.2260996952
1.2337686582
1.2375703454
1.2390103253
1.2388261810
1.2374889209
1.2353789287
1.2328405856
1.2301864930
1.2276904825
1.2255764607
1.2240038188
1.2230616160
1.2227700667
1.2230893098
1.2239356310
1.2251986905
1.2267597853
1.2285057249
1.2303354492
1.2321651757
1.2339278303
1.2355683499
1.2370431105
1.2383183344
1.2393682730
1.2401794605
1.2407535232
1.2411072587
1.2412752750
1.2413073906
1.2412600495
1.2411896020
1.2411421663
1.2380598786
1.1294319856
1.1281818228
1.1286560601
1.1295949065
1.1309783458
1.1327743743
1.1349383965
1.1374150376
1.1401422731
1.1430580467
1.1461089066
1.1492580424
1.1524911588
1.1558198701
1.1592806938
1.1629301428
1.1668381660
1.1710810957
1.1757413704
1.1809285228
1.1868383904
1.1938429456
1.2024200793
1.2117393696
1.2246642718
1.2327606498
1.2370651363
1.2388461658
1.2388822729
1.2376902136
1.2356755913
1.2331946071
1.2305647691
1.2280618625
1.2259111403
1.2242743122
1.2232445767
1.2228481183
1.2230524990
1.2237820059
1.2249337024
1.2263948977