<VTKFile type="UnstructuredGrid" version="0.1">
	<UnstructuredGrid>
		<Piece NumberOfPoints="13548" NumberOfCells="3387">
			<CellData>
				<DataArray type="Int32" Name="ghost" NumberOfComponents="1" Format="ascii">
1
1
1
1
1
1
1
1
1
1
1
1
1
1
1
1
1
1
1
1
1
1
1
1
1
1
1
1
1
1
1
1
1
1
1
1
1
1
1
1
1
1
1
1
1
1
1
1
1
1
1
1
1
1
1
1
1
1
0
0
0
0
0
0
0
0
0
0
0
0
0
0
0
0
0
0
0
0
1
1
0
0
0
0
0
0
0
0
0
0
0
0
0
0
0
0
0
0
0
0
0
0
0
0
0
0
0
0
0
0
0
0
0
1
1
0
0
0
0
0
0
0
0
0
0
0
0
0
0
0
0
0
0
0
0
1
1
0
0
0
0
0
0
0
0
0
0
0
0
0
0
0
0
0
0
0
0
0
0
0
0
0
0
0
0
0
0
0
0
0
1
1
0
0
0
0
0
0
0
0
0
0
0
0
0
0
0
0
0
0
0
0
1
1
0
0
0
0
0
0
0
0
0
0
0
0
0
0
0
0
0
0
0
0
0
0
0
0
0
0
0
0
0
0
0
0
0
1
1
0
0
0
0
0
0
0
0
0
0
0
0
0
0
0
0
0
0
0
0
1
1
0
0
0
0
0
0
0
0
0
0
0
0
0
0
0
0
0
0
0
0
0
0
0
0
0
0
0
0
0
0
0
0
0
1
1
0
0
0
0
0
0
0
0
0
0
0
0
0
0
0
0
0
0
0
0
1
1
0
0
0
0
0
0
0
0
0
0
0
0
0
0
0
0
0
0
0
0
0
0
0
0
0
0
0
0
0
0
0
0
0
1
1
0
0
0
0
0
0
0
0
0
0
0
0
0
0
0
0
0
0
0
0
1
1
0
0
0
0
0
0
0
0
0
0
0
0
0
0
0
0
0
0
0
0
0
0
0
0
0
0
0
0
0
0
0
0
0
1
1
0
0
0
0
0
0
0
0
0
0
0
0
0
0
0
0
0
0
0
0
1
1
0
0
0
0
0
0
0
0
0
0
0
0
0
0
0
0
0
0
0
0
0
0
0
0
0
0
0
0
0
0
0
0
0
1
1
0
0
0
0
0
0
0
0
0
0
0
0
0
0
0
0
0
0
0
0
1
1
0
0
0
0
0
0
0
0
0
0
0
0
0
0
0
0
0
0
0
0
0
0
0
0
0
0
0
0
0
0
0
0
0
1
1
0
0
0
0
0
0
0
0
0
0
0
0
0
0
0
0
0
0
0
0
1
1
0
0
0
0
0
0
0
0
0
0
0
0
0
0
0
0
0
0
0
0
0
0
0
0
0
0
0
0
0
0
0
0
0
1
1
0
0
0
0
0
0
0
0
0
0
0
0
0
0
0
0
0
0
0
0
1
1
0
0
0
0
0
0
0
0
0
0
0
0
0
0
0
0
0
0
0
0
0
0
0
0
0
0
0
0
0
0
0
0
0
1
1
0
0
0
0
0
0
0
0
0
0
0
0
0
0
0
0
0
0
0
0
1
1
0
0
0
0
0
0
0
0
0
0
0
0
0
0
0
0
0
0
0
0
0
0
0
0
0
0
0
0
0
0
0
0
0
1
1
0
0
0
0
0
0
0
0
0
0
0
0
0
0
0
0
0
0
0
0
1
1
0
0
0
0
0
0
0
0
0
0
0
0
0
0
0
0
0
0
0
0
0
0
0
0
0
0
0
0
0
0
0
0
0
1
1
0
0
0
0
0
0
0
0
0
0
0
0
0
0
0
0
0
0
0
0
1
1
0
0
0
0
0
0
0
0
0
0
0
0
0
0
0
0
0
0
0
0
0
0
0
0
0
0
0
0
0
0
0
0
0
1
1
0
0
0
0
0
0
0
0
0
0
0
0
0
0
0
0
0
0
0
0
1
1
0
0
0
0
0
0
0
0
0
0
0
0
0
0
0
0
0
0
0
0
0
0
0
0
0
0
0
0
0
0
0
0
0
1
1
0
0
0
0
0
0
0
0
0
0
0
0
0
0
0
0
0
0
0
0
1
1
0
0
0
0
0
0
0
0
0
0
0
0
0
0
0
0
0
0
0
0
0
0
0
0
0
0
0
0
0
0
0
0
0
1
1
0
0
0
0
0
0
0
0
0
0
0
0
0
0
0
0
0
0
0
0
1
1
0
0
0
0
0
0
0
0
0
0
0
0
0
0
0
0
0
0
0
0
0
0
0
0
0
0
0
0
0
0
0
0
0
1
1
0
0
0
0
0
0
0
0
0
0
0
0
0
0
0
0
0
0
0
0
1
1
0
0
0
0
0
0
0
0
0
0
0
0
0
0
0
0
0
0
0
0
0
0
0
0
0
0
0
0
0
0
0
0
0
1
1
0
0
0
0
0
0
0
0
0
0
0
0
0
0
0
0
0
0
0
0
1
1
0
0
0
0
0
0
0
0
0
0
0
0
0
0
0
0
0
0
0
0
0
0
0
0
0
0
0
0
0
0
0
0
0
1
1
0
0
0
0
0
0
0
0
0
0
0
0
0
0
0
0
0
0
0
0
1
1
0
0
0
0
0
0
0
0
0
0
0
0
0
0
0
0
0
0
0
0
0
0
0
0
0
0
0
0
0
0
0
0
0
1
1
0
0
0
0
0
0
0
0
0
0
0
0
0
0
0
0
0
0
0
0
1
1
0
0
0
0
0
0
0
0
0
0
0
0
0
0
0
0
0
0
0
0
0
0
0
0
0
0
0
0
0
0
0
0
0
1
1
0
0
0
0
0
0
0
0
0
0
0
0
0
0
0
0
0
0
0
0
1
1
0
0
0
0
0
0
0
0
0
0
0
0
0
0
0
0
0
0
0
0
0
0
0
0
0
0
0
0
0
0
0
0
0
1
1
0
0
0
0
0
0
0
0
0
0
0
0
0
0
0
0
0
0
0
0
1
1
0
0
0
0
0
0
0
0
0
0
0
0
0
0
0
0
0
0
0
0
0
0
0
0
0
0
0
0
0
0
0
0
0
1
1
0
0
0
0
0
0
0
0
0
0
0
0
0
0
0
0
0
0
0
0
1
1
0
0
0
0
0
0
0
0
0
0
0
0
0
0
0
0
0
0
0
0
0
0
0
0
0
0
0
0
0
0
0
0
0
1
1
0
0
0
0
0
0
0
0
0
0
0
0
0
0
0
0
0
0
0
0
1
1
0
0
0
0
0
0
0
0
0
0
0
0
0
0
0
0
0
0
0
0
0
0
0
0
0
0
0
0
0
0
0
0
0
1
1
0
0
0
0
0
0
0
0
0
0
0
0
0
0
0
0
0
0
0
0
0
1
1
0
0
0
0
0
0
0
0
0
0
0
0
0
0
0
0
0
0
0
0
0
0
0
0
0
0
0
0
0
0
0
0
0
0
1
1
0
0
0
0
0
0
0
0
0
0
0
0
0
0
0
0
0
0
0
0
0
0
0
0
0
0
0
0
0
0
0
0
0
0
0
0
0
0
0
0
0
0
0
0
0
0
0
0
0
0
0
0
0
0
0
0
0
1
1
0
0
0
0
0
0
0
0
0
0
0
0
0
0
0
0
0
0
0
0
0
0
0
0
0
0
0
0
0
0
0
0
0
0
0
0
0
0
0
0
0
0
0
0
0
0
0
0
0
0
0
0
0
0
0
0
0
1
1
0
0
0
0
0
0
0
0
0
0
0
0
0
0
0
0
0
0
0
0
0
0
0
0
0
0
0
0
0
0
0
0
0
0
0
0
0
0
0
0
0
0
0
0
0
0
0
0
0
0
0
0
0
0
0
0
0
1
1
0
0
0
0
0
0
0
0
0
0
0
0
0
0
0
0
0
0
0
0
0
0
0
0
0
0
0
0
0
0
0
0
0
0
0
0
0
0
0
0
0
0
0
0
0
0
0
0
0
0
0
0
0
0
0
0
0
1
1
0
0
0
0
0
0
0
0
0
0
0
0
0
0
0
0
0
0
0
0
0
0
0
0
0
0
0
0
0
0
0
0
0
0
0
0
0
0
0
0
0
0
0
0
0
0
0
0
0
0
0
0
0
0
0
0
0
1
1
0
0
0
0
0
0
0
0
0
0
0
0
0
0
0
0
0
0
0
0
0
0
0
0
0
0
0
0
0
0
0
0
0
0
0
0
0
0
0
0
0
0
0
0
0
0
0
0
0
0
0
0
0
0
0
0
0
1
1
0
0
0
0
0
0
0
0
0
0
0
0
0
0
0
0
0
0
0
0
0
0
0
0
0
0
0
0
0
0
0
0
0
0
0
0
0
0
0
0
0
0
0
0
0
0
0
0
0
0
0
0
0
0
0
0
0
1
1
0
0
0
0
0
0
0
0
0
0
0
0
0
0
0
0
0
0
0
0
0
0
0
0
0
0
0
0
0
0
0
0
0
0
0
0
0
0
0
0
0
0
0
0
0
0
0
0
0
0
0
0
0
0
0
0
0
1
1
0
0
0
0
0
0
0
0
0
0
0
0
0
0
0
0
0
0
0
0
0
0
0
0
0
0
0
0
0
0
0
0
0
0
0
0
0
0
0
0
0
0
0
0
0
0
0
0
0
0
0
0
0
0
0
0
0
1
1
0
0
0
0
0
0
0
0
0
0
0
0
0
0
0
0
0
0
0
0
0
0
0
0
0
0
0
0
0
0
0
0
0
0
0
0
0
0
0
0
0
0
0
0
0
0
0
0
0
0
0
0
0
0
0
0
0
1
1
0
0
0
0
0
0
0
0
0
0
0
0
0
0
0
0
0
0
0
0
0
1
1
0
0
0
0
0
0
0
0
0
0
0
0
0
0
0
0
0
0
0
0
0
0
0
0
0
0
0
0
0
0
0
0
0
0
1
1
0
0
0
0
0
0
0
0
0
0
0
0
0
0
0
0
0
0
0
0
1
1
0
0
0
0
0
0
0
0
0
0
0
0
0
0
0
0
0
0
0
0
0
0
0
0
0
0
0
0
0
0
0
0
0
1
1
0
0
0
0
0
0
0
0
0
0
0
0
0
0
0
0
0
0
0
0
1
1
0
0
0
0
0
0
0
0
0
0
0
0
0
0
0
0
0
0
0
0
0
0
0
0
0
0
0
0
0
0
0
0
0
1
1
0
0
0
0
0
0
0
0
0
0
0
0
0
0
0
0
0
0
0
0
1
1
0
0
0
0
0
0
0
0
0
0
0
0
0
0
0
0
0
0
0
0
0
0
0
0
0
0
0
0
0
0
0
0
0
1
1
0
0
0
0
0
0
0
0
0
0
0
0
0
0
0
0
0
0
0
0
1
1
0
0
0
0
0
0
0
0
0
0
0
0
0
0
0
0
0
0
0
0
0
0
0
0
0
0
0
0
0
0
0
0
0
1
1
0
0
0
0
0
0
0
0
0
0
0
0
0
0
0
0
0
0
0
0
1
1
0
0
0
0
0
0
0
0
0
0
0
0
0
0
0
0
0
0
0
0
0
0
0
0
0
0
0
0
0
0
0
0
0
1
1
0
0
0
0
0
0
0
0
0
0
0
0
0
0
0
0
0
0
0
0
1
1
0
0
0
0
0
0
0
0
0
0
0
0
0
0
0
0
0
0
0
0
0
0
0
0
0
0
0
0
0
0
0
0
0
1
1
0
0
0
0
0
0
0
0
0
0
0
0
0
0
0
0
0
0
0
0
1
1
0
0
0
0
0
0
0
0
0
0
0
0
0
0
0
0
0
0
0
0
0
0
0
0
0
0
0
0
0
0
0
0
0
1
1
0
0
0
0
0
0
0
0
0
0
0
0
0
0
0
0
0
0
0
0
1
1
0
0
0
0
0
0
0
0
0
0
0
0
0
0
0
0
0
0
0
0
0
0
0
0
0
0
0
0
0
0
0
0
0
1
1
0
0
0
0
0
0
0
0
0
0
0
0
0
0
0
0
0
0
0
0
1
1
0
0
0
0
0
0
0
0
0
0
0
0
0
0
0
0
0
0
0
0
0
0
0
0
0
0
0
0
0
0
0
0
0
1
1
0
0
0
0
0
0
0
0
0
0
0
0
0
0
0
0
0
0
0
0
1
1
0
0
0
0
0
0
0
0
0
0
0
0
0
0
0
0
0
0
0
0
0
0
0
0
0
0
0
0
0
0
0
0
0
1
1
0
0
0
0
0
0
0
0
0
0
0
0
0
0
0
0
0
0
0
0
1
1
0
0
0
0
0
0
0
0
0
0
0
0
0
0
0
0
0
0
0
0
0
0
0
0
0
0
0
0
0
0
0
0
0
1
1
0
0
0
0
0
0
0
0
0
0
0
0
0
0
0
0
0
0
0
0
1
1
0
0
0
0
0
0
0
0
0
0
0
0
0
0
0
0
0
0
0
0
0
0
0
0
0
0
0
0
0
0
0
0
0
1
1
0
0
0
0
0
0
0
0
0
0
0
0
0
0
0
0
0
0
0
0
1
1
0
0
0
0
0
0
0
0
0
0
0
0
0
0
0
0
0
0
0
0
0
0
0
0
0
0
0
0
0
0
0
0
0
1
1
0
0
0
0
0
0
0
0
0
0
0
0
0
0
0
0
0
0
0
0
1
1
0
0
0
0
0
0
0
0
0
0
0
0
0
0
0
0
0
0
0
0
0
0
0
0
0
0
0
0
0
0
0
0
0
1
1
0
0
0
0
0
0
0
0
0
0
0
0
0
0
0
0
0
0
0
0
1
1
0
0
0
0
0
0
0
0
0
0
0
0
0
0
0
0
0
0
0
0
0
0
0
0
0
0
0
0
0
0
0
0
0
1
1
0
0
0
0
0
0
0
0
0
0
0
0
0
0
0
0
0
0
0
0
1
1
0
0
0
0
0
0
0
0
0
0
0
0
0
0
0
0
0
0
0
0
0
0
0
0
0
0
0
0
0
0
0
0
0
1
1
0
0
0
0
0
0
0
0
0
0
0
0
0
0
0
0
0
0
0
0
1
1
0
0
0
0
0
0
0
0
0
0
0
0
0
0
0
0
0
0
0
0
0
0
0
0
0
0
0
0
0
0
0
0
0
1
1
0
0
0
0
0
0
0
0
0
0
0
0
0
0
0
0
0
0
0
0
1
1
0
0
0
0
0
0
0
0
0
0
0
0
0
0
0
0
0
0
0
0
0
0
0
0
0
0
0
0
0
0
0
0
0
1
1
0
0
0
0
0
0
0
0
0
0
0
0
0
0
0
0
0
0
0
0
1
1
0
0
0
0
0
0
0
0
0
0
0
0
0
0
0
0
0
0
0
0
0
0
0
0
0
0
0
0
0
0
0
0
0
1
1
0
0
0
0
0
0
0
0
0
0
0
0
0
0
0
0
0
0
0
0
1
1
0
0
0
0
0
0
0
0
0
0
0
0
0
0
0
0
0
0
0
0
0
0
0
0
0
0
0
0
0
0
0
0
0
1
1
0
0
0
0
0
0
0
0
0
0
0
0
0
0
0
0
0
0
0
0
1
1
0
0
0
0
0
0
0
0
0
0
0
0
0
0
0
0
0
0
0
0
0
0
0
0
0
0
0
0
0
0
0
0
0
1
1
1
1
1
1
1
1
1
1
1
1
1
1
1
1
1
1
1
1
1
1
1
1
1
1
1
1
1
1
1
1
1
1
1
1
1
1
1
1
1
1
1
1
1
1
1
1
1
1
1
1
1
1
1
1
1
1
				</DataArray>
				<DataArray type="Float64" Name="h" NumberOfComponents="1" Format="ascii">
1.5000000000
1.5000000000
1.5000000000
1.5000000000
1.5000000000
1.5000000000
1.5000000000
1.5000000000
1.5000000000
1.5000000000
1.5000000000
1.5000000000
1.5000000000
1.5000000000
1.5000000000
1.5000000000
1.4999999990
1.4999999928
1.4999999741
1.4999999429
1.4999999159
1.4999999159
1.0000000000
1.0000000000
1.0000000000
1.0000000000
1.0000000000
1.0000000000
1.0000000000
1.0000000000
1.0000000000
1.0000000000
1.0000000000
1.0000000000
1.0000000000
1.0000000000
1.0000000000
1.0000000000
1.0000000000
1.0000000000
1.0000000000
1.0000000000
1.0000000000
1.0000000000
1.0000000000
1.0000000000
1.0000000000
1.0000000000
1.0000000000
1.0000000000
1.0000000000
1.0000000000
1.0000000000
1.0000000000
1.0000000000
1.0000000000
1.0000000000
1.5000000000
1.5000000000
1.5000000000
1.5000000000
1.5000000000
1.5000000000
1.5000000000
1.5000000000
1.5000000000
1.5000000000
1.5000000000
1.5000000000
1.5000000000
1.5000000000
1.5000000000
1.4999999988
1.4999999897
1.4999999575
1.4999998875
1.4999997907
1.4999997157
1.4999999159
1.0000000000
1.0000000000
1.0000000000
1.0000000000
1.0000000000
1.0000000000
1.0000000000
1.0000000000
1.0000000000
1.0000000000
1.0000000000
1.0000000000
1.0000000000
1.0000000000
1.0000000000
1.0000000000
1.0000000000
1.0000000000
1.0000000000
1.0000000000
1.0000000000
1.0000000000
1.0000000000
1.0000000000
1.0000000000
1.0000000000
1.0000000000
1.0000000000
1.0000000000
1.0000000000
1.0000000000
1.0000000000
1.0000000000
1.0000000000
1.0000000000
1.5000000000
1.5000000000
1.5000000000
1.5000000000
1.5000000000
1.5000000000
1.5000000000
1.5000000000
1.5000000000
1.5000000000
1.5000000000
1.5000000000
1.5000000000
1.5000000000
1.4999999973
1.4999999764
1.4999998952
1.4999996948
1.4999993524
1.4999989480
1.4999986631
1.4999995220
1.0000000001
1.0000000005
1.0000000003
1.0000000001
1.0000000000
1.0000000000
1.0000000000
1.0000000000
1.0000000000
1.0000000000
1.0000000000
1.0000000000
1.0000000000
1.0000000000
1.0000000000
1.0000000000
1.0000000000
1.0000000000
1.0000000000
1.0000000000
1.0000000000
1.0000000000
1.0000000000
1.0000000000
1.0000000000
1.0000000000
1.0000000000
1.0000000000
1.0000000000
1.0000000000
1.0000000000
1.0000000000
1.0000000000
1.0000000000
1.0000000000
1.5000000000
1.5000000000
1.5000000000
1.5000000000
1.5000000000
1.5000000000
1.5000000000
1.5000000000
1.5000000000
1.5000000000
1.5000000000
1.5000000000
1.5000000000
1.4999999948
1.4999999504
1.4999997609
1.4999992362
1.4999981969
1.4999966730
1.4999950517
1.4999939790
1.4999975177
1.0000000012
1.0000000047
1.0000000029
1.0000000012
1.0000000003
1.0000000000
1.0000000000
1.0000000000
1.0000000000
1.0000000000
1.0000000000
1.0000000000
1.0000000000
1.0000000000
1.0000000000
1.0000000000
1.0000000000
1.0000000000
1.0000000000
1.0000000000
1.0000000000
1.0000000000
1.0000000000
1.0000000000
1.0000000000
1.0000000000
1.0000000000
1.0000000000
1.0000000000
1.0000000000
1.0000000000
1.0000000000
1.0000000000
1.0000000000
1.0000000000
1.5000000000
1.5000000000
1.5000000000
1.5000000000
1.5000000000
1.5000000000
1.5000000000
1.5000000000
1.5000000000
1.5000000000
1.5000000000
1.5000000000
1.4999999909
1.4999999072
1.4999995215
1.4999983549
1.4999957860
1.4999914632
1.4999858254
1.4999802938
1.4999768072
1.4999891996
1.0000000113
1.0000000362
1.0000000243
1.0000000113
1.0000000037
1.0000000008
1.0000000001
1.0000000000
1.0000000000
1.0000000000
1.0000000000
1.0000000000
1.0000000000
1.0000000000
1.0000000000
1.0000000000
1.0000000000
1.0000000000
1.0000000000
1.0000000000
1.0000000000
1.0000000000
1.0000000000
1.0000000000
1.0000000000
1.0000000000
1.0000000000
1.0000000000
1.0000000000
1.0000000000
1.0000000000
1.0000000000
1.0000000000
1.0000000000
1.0000000000
1.5000000000
1.5000000000
1.5000000000
1.5000000000
1.5000000000
1.5000000000
1.5000000000
1.5000000000
1.5000000000
1.5000000000
1.5000000000
1.4999999854
1.4999998432
1.4999991440
1.4999968732
1.4999914502
1.4999813926
1.4999665006
1.4999488265
1.4999325890
1.4999227505
1.4999599736
1.0000000829
1.0000002309
1.0000001650
1.0000000862
1.0000000332
1.0000000093
1.0000000018
1.0000000002
1.0000000000
1.0000000000
1.0000000000
1.0000000000
1.0000000000
1.0000000000
1.0000000000
1.0000000000
1.0000000000
1.0000000000
1.0000000000
1.0000000000
1.0000000000
1.0000000000
1.0000000000
1.0000000000
1.0000000000
1.0000000000
1.0000000000
1.0000000000
1.0000000000
1.0000000000
1.0000000000
1.0000000000
1.0000000000
1.0000000000
1.0000000000
1.5000000000
1.5000000000
1.5000000000
1.5000000000
1.5000000000
1.5000000000
1.5000000000
1.5000000000
1.5000000000
1.5000000000
1.4999999786
1.4999997584
1.4999986130
1.4999946623
1.4999845880
1.4999644644
1.4999318973
1.4998884567
1.4998407733
1.4997992998
1.4997749807
1.4998718498
1.0000005084
1.0000012517
1.0000009399
1.0000005386
1.0000002373
1.0000000798
1.0000000200
1.0000000035
1.0000000004
1.0000000000
1.0000000000
1.0000000000
1.0000000000
1.0000000000
1.0000000000
1.0000000000
1.0000000000
1.0000000000
1.0000000000
1.0000000000
1.0000000000
1.0000000000
1.0000000000
1.0000000000
1.0000000000
1.0000000000
1.0000000000
1.0000000000
1.0000000000
1.0000000000
1.0000000000
1.0000000000
1.0000000000
1.0000000000
1.0000000000
1.5000000000
1.5000000000
1.5000000000
1.5000000000
1.5000000000
1.5000000000
1.5000000000
1.5000000000
1.5000000000
1.4999999710
1.4999996578
1.4999979441
1.4999917146
1.4999749207
1.4999392960
1.4998776102
1.4997883895
1.4996793554
1.4995673174
1.4994742809
1.4994212123
1.4996414465
1.0000026508
1.0000058520
1.0000045735
1.0000028251
1.0000013881
1.0000005402
1.0000001639
1.0000000375
1.0000000061
1.0000000006
1.0000000000
1.0000000000
1.0000000000
1.0000000000
1.0000000000
1.0000000000
1.0000000000
1.0000000000
1.0000000000
1.0000000000
1.0000000000
1.0000000000
1.0000000000
1.0000000000
1.0000000000
1.0000000000
1.0000000000
1.0000000000
1.0000000000
1.0000000000
1.0000000000
1.0000000000
1.0000000000
1.0000000000
1.0000000000
1.5000000000
1.5000000000
1.5000000000
1.5000000000
1.5000000000
1.5000000000
1.5000000000
1.5000000000
1.4999999635
1.4999995518
1.4999971931
1.4999882018
1.4999627413
1.4999058889
1.4998018982
1.4996419920
1.4994316874
1.4991932092
1.4989616384
1.4987768014
1.4986738068
1.4991144879
1.0000119065
1.0000238557
1.0000192714
1.0000126737
1.0000068158
1.0000029888
1.0000010568
1.0000002950
1.0000000628
1.0000000096
1.0000000009
1.0000000000
1.0000000000
1.0000000000
1.0000000000
1.0000000000
1.0000000000
1.0000000000
1.0000000000
1.0000000000
1.0000000000
1.0000000000
1.0000000000
1.0000000000
1.0000000000
1.0000000000
1.0000000000
1.0000000000
1.0000000000
1.0000000000
1.0000000000
1.0000000000
1.0000000000
1.0000000000
1.0000000000
1.5000000000
1.5000000000
1.5000000000
1.5000000000
1.5000000000
1.5000000000
1.5000000000
1.4999999574
1.4999994552
1.4999964520
1.4999844882
1.4999490543
1.4998662171
1.4997073793
1.4994506762
1.4990939211
1.4986616231
1.4982021181
1.4977771715
1.4974492720
1.4972701317
1.4980517744
1.0000465768
1.0000855350
1.0000710646
1.0000492924
1.0000286194
1.0000138719
1.0000055656
1.0000018206
1.0000004741
1.0000000947
1.0000000137
1.0000000013
1.0000000001
1.0000000000
1.0000000000
1.0000000000
1.0000000000
1.0000000000
1.0000000000
1.0000000000
1.0000000000
1.0000000000
1.0000000000
1.0000000000
1.0000000000
1.0000000000
1.0000000000
1.0000000000
1.0000000000
1.0000000000
1.0000000000
1.0000000000
1.0000000000
1.0000000000
1.0000000000
1.5000000000
1.5000000000
1.5000000000
1.5000000000
1.5000000000
1.5000000000
1.4999999535
1.4999993838
1.4999958338
1.4999810858
1.4999355147
1.4998243432
1.4996018562
1.4992263968
1.4986805990
1.4979856592
1.4972014324
1.4964133580
1.4957145434
1.4951905849
1.4949089797
1.4961471648
1.0001600585
1.0002716647
1.0002312505
1.0001679827
1.0001042098
1.0000550401
1.0000245728
1.0000091654
1.0000028070
1.0000006883
1.0000001301
1.0000000178
1.0000000016
1.0000000001
1.0000000000
1.0000000000
1.0000000000
1.0000000000
1.0000000000
1.0000000000
1.0000000000
1.0000000000
1.0000000000
1.0000000000
1.0000000000
1.0000000000
1.0000000000
1.0000000000
1.0000000000
1.0000000000
1.0000000000
1.0000000000
1.0000000000
1.0000000000
1.0000000000
1.5000000000
1.5000000000
1.5000000000
1.5000000000
1.5000000000
1.4999999527
1.4999993504
1.4999954449
1.4999785459
1.4999241369
1.4997858538
1.4994976677
1.4989915073
1.4982259529
1.4972108125
1.4960132445
1.4947430440
1.4935271087
1.4924868496
1.4917252787
1.4913212777
1.4930876140
1.0004865990
1.0007687261
1.0006685445
1.0005058627
1.0003326660
1.0001893965
1.0000927304
1.0000386683
1.0000135505
1.0000039177
1.0000009104
1.0000001636
1.0000000214
1.0000000018
1.0000000001
1.0000000000
1.0000000000
1.0000000000
1.0000000000
1.0000000000
1.0000000000
1.0000000000
1.0000000000
1.0000000000
1.0000000000
1.0000000000
1.0000000000
1.0000000000
1.0000000000
1.0000000000
1.0000000000
1.0000000000
1.0000000000
1.0000000000
1.0000000000
1.5000000000
1.5000000000
1.5000000000
1.5000000000
1.4999999551
1.4999993615
1.4999953574
1.4999773201
1.4999168363
1.4997567478
1.4994095495
1.4987756466
1.4977802319
1.4964112237
1.4947357005
1.4928862479
1.4910272373
1.4893201407
1.4879028258
1.4868848362
1.4863499762
1.4886403658
1.0013159961
1.0019466307
1.0017260886
1.0013550816
1.0009390745
1.0005715987
1.0003035359
1.0001394283
1.0000548010
1.0000181710
1.0000049872
1.0000011034
1.0000001893
1.0000000236
1.0000000019
1.0000000001
1.0000000000
1.0000000000
1.0000000000
1.0000000000
1.0000000000
1.0000000000
1.0000000000
1.0000000000
1.0000000000
1.0000000000
1.0000000000
1.0000000000
1.0000000000
1.0000000000
1.0000000000
1.0000000000
1.0000000000
1.0000000000
1.0000000000
1.5000000000
1.5000000000
1.5000000000
1.4999999603
1.4999994149
1.4999955889
1.4999776409
1.4999149358
1.4997420211
1.4993515298
1.4986101166
1.4974014794
1.4956790544
1.4934982951
1.4910090800
1.4884153550
1.4859258280
1.4837185550
1.4819300282
1.4806635263
1.4800019549
1.4827291680
1.0031785144
1.0044239760
1.0039941666
1.0032445221
1.0023595334
1.0015262957
1.0008717934
1.0004361905
1.0001894180
1.0000705913
1.0000222517
1.0000058195
1.0000012296
1.0000002018
1.0000000242
1.0000000019
1.0000000001
1.0000000000
1.0000000000
1.0000000000
1.0000000000
1.0000000000
1.0000000000
1.0000000000
1.0000000000
1.0000000000
1.0000000000
1.0000000000
1.0000000000
1.0000000000
1.0000000000
1.0000000000
1.0000000000
1.0000000000
1.0000000000
1.5000000000
1.5000000000
1.4999999673
1.4999995009
1.4999960959
1.4999794513
1.4999188003
1.4997443332
1.4993335169
1.4985210728
1.4971440888
1.4951085723
1.4924418661
1.4892993704
1.4859223695
1.4825737598
1.4794833005
1.4768215491
1.4747048639
1.4732193793
1.4724444685
1.4754593165
1.0068713809
1.0090349881
1.0082994652
1.0069646818
1.0053014073
1.0036299667
1.0022170472
1.0011981672
1.0005683206
1.0002344302
1.0000831479
1.0000249904
1.0000062432
1.0000012623
1.0000001986
1.0000000228
1.0000000017
1.0000000001
1.0000000000
1.0000000000
1.0000000000
1.0000000000
1.0000000000
1.0000000000
1.0000000000
1.0000000000
1.0000000000
1.0000000000
1.0000000000
1.0000000000
1.0000000000
1.0000000000
1.0000000000
1.0000000000
1.0000000000
1.5000000000
1.4999999750
1.4999996046
1.4999967877
1.4999824198
1.4999277323
1.4997633179
1.4993587704
1.4985234818
1.4970476982
1.4947789266
1.4916966020
1.4879412835
1.4837812021
1.4795363981
1.4755016937
1.4718987556
1.4688670733
1.4664876842
1.4648230371
1.4639509873
1.4670810482
1.0133040406
1.0165834493
1.0154941808
1.0134217127
1.0106796891
1.0077241681
1.0050264107
1.0029172155
1.0014985640
1.0006762172
1.0002656744
1.0000898689
1.0000257983
1.0000061648
1.0000011940
1.0000001803
1.0000000199
1.0000000014
1.0000000001
1.0000000000
1.0000000000
1.0000000000
1.0000000000
1.0000000000
1.0000000000
1.0000000000
1.0000000000
1.0000000000
1.0000000000
1.0000000000
1.0000000000
1.0000000000
1.0000000000
1.0000000000
1.0000000000
1.4999999689
1.4999996925
1.4999975508
1.4999860369
1.4999401607
1.4997956659
1.4994230956
1.4986174223
1.4971285421
1.4947393342
1.4913609327
1.4870913804
1.4822030025
1.4770665613
1.4720524783
1.4674549549
1.4634603429
1.4601588073
1.4575863950
1.4557799632
1.4548226353
1.4579108194
1.0230705100
1.0273647124
1.0259998915
1.0232362555
1.0193156815
1.0147450471
1.0102069626
1.0063406567
1.0035070717
1.0017160385
1.0007378098
1.0002764095
1.0000892544
1.0000244873
1.0000055996
1.0000010394
1.0000001506
1.0000000160
1.0000000011
1.0000000000
1.0000000000
1.0000000000
1.0000000000
1.0000000000
1.0000000000
1.0000000000
1.0000000000
1.0000000000
1.0000000000
1.0000000000
1.0000000000
1.0000000000
1.0000000000
1.0000000000
1.0000000000
1.4999996390
1.4999980820
1.4999897348
1.4999540639
1.4998359610
1.4995157913
1.4987879132
1.4973751937
1.4949985613
1.4914844427
1.4868563373
1.4813557996
1.4753816800
1.4693806943
1.4637400922
1.4587239589
1.4544628417
1.4509860098
1.4482796856
1.4463561930
1.4453146735
1.4482431107
1.0358965300
1.0407197542
1.0393268234
1.0362213023
1.0314223284
1.0253027861
1.0186246213
1.0123680731
1.0073415177
1.0038716118
1.0018048593
1.0007394341
1.0002641503
1.0000814077
1.0000213391
1.0000046681
1.0000008300
1.0000001154
1.0000000118
1.0000000008
1.0000000000
1.0000000000
1.0000000000
1.0000000000
1.0000000000
1.0000000000
1.0000000000
1.0000000000
1.0000000000
1.0000000000
1.0000000000
1.0000000000
1.0000000000
1.0000000000
1.0000000000
1.4999978727
1.4999919684
1.4999673563
1.4998780892
1.4996223144
1.4990083785
1.4977509836
1.4955221817
1.4920580509
1.4872772089
1.4813461453
1.4746518175
1.4676980873
1.4609761509
1.4548604154
1.4495631111
1.4451460061
1.4415711422
1.4387722564
1.4367381770
1.4355972768
1.4382903331
1.0504310690
1.0550832857
1.0540332861
1.0511722245
1.0462041126
1.0391713329
1.0306352837
1.0217406708
1.0138310792
1.0078325199
1.0039326542
1.0017445190
1.0006803099
1.0002314850
1.0000680111
1.0000170141
1.0000035564
1.0000006051
1.0000000806
1.0000000079
1.0000000005
1.0000000000
1.0000000000
1.0000000000
1.0000000000
1.0000000000
1.0000000000
1.0000000000
1.0000000000
1.0000000000
1.0000000000
1.0000000000
1.0000000000
1.0000000000
1.0000000000
1.4999915858
1.4999746580
1.4999160379
1.4997277313
1.4992467284
1.4982016126
1.4962386621
1.4930127872
1.4883193830
1.4822032282
1.4749834664
1.4671785645
1.4593711387
1.4520698638
1.4456152755
1.4401541900
1.4356720866
1.4320593811
1.4291931650
1.4270356507
1.4257578187
1.4281667400
1.0647495963
1.0686521168
1.0683416707
1.0663283690
1.0620411013
1.0551305882
1.0456788702
1.0346009631
1.0235775045
1.0143112310
1.0077048603
1.0036727437
1.0015466670
1.0005728697
1.0001852749
1.0000517878
1.0000123385
1.0000024592
1.0000003995
1.0000000509
1.0000000048
1.0000000003
1.0000000000
1.0000000000
1.0000000000
1.0000000000
1.0000000000
1.0000000000
1.0000000000
1.0000000000
1.0000000000
1.0000000000
1.0000000000
1.0000000000
1.0000000000
1.4999749287
1.4999357242
1.4998178366
1.4994721630
1.4986663904
1.4970523191
1.4942293714
1.4898708399
1.4838649357
1.4763986584
1.4679385641
1.4591158425
1.4505703151
1.4428107239
1.4361319487
1.4306077970
1.4261416100
1.4225455941
1.4196301907
1.4173184719
1.4158330797
1.4179106974
1.0772208980
1.0801261130
1.0809416539
1.0802213777
1.0772724776
1.0714805328
1.0623713205
1.0502377637
1.0366012304
1.0237801482
1.0136880611
1.0069716737
1.0031425987
1.0012519979
1.0004390086
1.0001345274
1.0000356601
1.0000080654
1.0000015281
1.0000002363
1.0000000287
1.0000000026
1.0000000002
1.0000000000
1.0000000000
1.0000000000
1.0000000000
1.0000000000
1.0000000000
1.0000000000
1.0000000000
1.0000000000
1.0000000000
1.0000000000
1.0000000000
1.4999399729
1.4998632872
1.4996563811
1.4990899639
1.4978617431
1.4955577632
1.4917549874
1.4861737383
1.4788142104
1.4700079616
1.4603581667
1.4505940879
1.4414014692
1.4332826956
1.4264829545
1.4209978918
1.4166401757
1.4131304126
1.4101919538
1.4076794744
1.4058607585
1.4075380056
1.0869009324
1.0888333334
1.0912697372
1.0921761040
1.0909379358
1.0868942616
1.0791811276
1.0673426620
1.0522225048
1.0362238479
1.0222346611
1.0120459824
1.0057697535
1.0024470585
1.0009180359
1.0003033917
1.0000876888
1.0000219417
1.0000046894
1.0000008406
1.0000001232
1.0000000142
1.0000000012
1.0000000001
1.0000000000
1.0000000000
1.0000000000
1.0000000000
1.0000000000
1.0000000000
1.0000000000
1.0000000000
1.0000000000
1.0000000000
1.0000000000
1.4998795605
1.4997486369
1.4994233414
1.4985773899
1.4968433379
1.4937554519
1.4888887896
1.4820286356
1.4732940775
1.4631568779
1.4523482051
1.4416902167
1.4319155791
1.4235247044
1.4167150584
1.4113988689
1.4072836742
1.4039750283
1.4010740774
1.3983094123
1.3959376284
1.3971154303
1.0929627185
1.0940099668
1.0990996934
1.1021961029
1.1029838346
1.1009706687
1.0952125812
1.0847012698
1.0693790689
1.0511145085
1.0333313930
1.0191235396
1.0096691719
1.0043251480
1.0017152093
1.0006023167
1.0001864496
1.0000505039
1.0000118509
1.0000023770
1.0000004003
1.0000000552
1.0000000060
1.0000000005
1.0000000000
1.0000000000
1.0000000000
1.0000000000
1.0000000000
1.0000000000
1.0000000000
1.0000000000
1.0000000000
1.0000000000
1.0000000000
1.4997913807
1.4995912604
1.4991234971
1.4979520509
1.4956511019
1.4917151554
1.4857304458
1.4775547225
1.4674250302
1.4559477462
1.4439791007
1.4324388333
1.4221184408
1.4135299247
1.4068308507
1.4018470081
1.3981671131
1.3952596633
1.3925663433
1.3895946587
1.3863733999
1.3869442248
1.0927307492
1.0928440364
1.1038563058
1.1107911546
1.1142497923
1.1143736236
1.1106137638
1.1018310177
1.0872054308
1.0676867792
1.0466084052
1.0281640353
1.0149309043
1.0069807323
1.0028927256
1.0010643410
1.0003470269
1.0000997592
1.0000250944
1.0000054683
1.0000010187
1.0000001594
1.0000000205
1.0000000021
1.0000000002
1.0000000000
1.0000000000
1.0000000000
1.0000000000
1.0000000000
1.0000000000
1.0000000000
1.0000000000
1.0000000000
1.0000000000
1.4996811435
1.4994018159
1.4987765455
1.4972520960
1.4943498085
1.4895316262
1.4824000666
1.4728850452
1.4613364174
1.4484898486
1.4353263161
1.4228700028
1.4119824580
1.4031961639
1.3966287970
1.3920131799
1.3888262943
1.3864613456
1.3843672425
1.3820959273
1.3794012828
1.3793078018
1.0756899775
1.0745152947
1.1050637713
1.1202139926
1.1271683294
1.1290032757
1.1265573137
1.1190986315
1.1053491473
1.0852352265
1.0614485884
1.0388214805
1.0214127102
1.0103659926
1.0044371108
1.0016871693
1.0005701223
1.0001706699
1.0000450019
1.0000103687
1.0000020663
1.0000003515
1.0000000502
1.0000000059
1.0000000005
1.0000000000
1.0000000000
1.0000000000
1.0000000000
1.0000000000
1.0000000000
1.0000000000
1.0000000000
1.0000000000
1.0000000000
1.4995627443
1.4992012620
1.4984148666
1.4965319644
1.4930240070
1.4873227847
1.4790468079
1.4681942856
1.4552219820
1.4409896135
1.4265996643
1.4131761375
1.4016331874
1.3924705435
1.3856415299
1.3805424846
1.3761074486
1.3709077054
1.3630686815
1.3497047864
1.3253190407
1.2783358721
1.2177132776
1.2185496948
1.1524792339
1.1497894633
1.1528923709
1.1533782251
1.1521046656
1.1494309441
1.1449039753
1.1369800486
1.1234336740
1.1028779041
1.0768731864
1.0503301699
1.0286306566
1.0142109763
1.0062114813
1.0024082430
1.0008303388
1.0002541724
1.0000687534
1.0000163210
1.0000033700
1.0000005986
1.0000000902
1.0000000113
1.0000000012
1.0000000001
1.0000000000
1.0000000000
1.0000000000
1.0000000000
1.0000000000
1.0000000000
1.0000000000
1.0000000000
1.0000000000
1.4994539194
1.4990150008
1.4980761037
1.4958530198
1.4917685554
1.4852247962
1.4758554678
1.4637259031
1.4494003907
1.4338684756
1.4183689492
1.4041525708
1.3922250560
1.3831013301
1.3766311017
1.3719838575
1.3678139880
1.3625084558
1.3543241640
1.3412189237
1.3202595679
1.2866909404
1.2168946754
1.2177854732
1.1807737109
1.1719572053
1.1694840990
1.1673817077
1.1648302339
1.1617101819
1.1574802168
1.1505230904
1.1382018456
1.1181861983
1.0909600369
1.0612680310
1.0356594969
1.0179856339
1.0079453473
1.0031040407
1.0010771905
1.0003318292
1.0000903517
1.0000215955
1.0000044901
1.0000008029
1.0000001217
1.0000000153
1.0000000016
1.0000000001
1.0000000000
1.0000000000
1.0000000000
1.0000000000
1.0000000000
1.0000000000
1.0000000000
1.0000000000
1.0000000000
1.4993679890
1.4988629035
1.4977906414
1.4952667100
1.4906665527
1.4833631793
1.4730052053
1.4597241577
1.4441917742
1.4275311791
1.4111293779
1.3963872863
1.3844349056
1.3758329199
1.3703408035
1.3668963841
1.3638756997
1.3595114027
1.3522006530
1.3404878904
1.3226965682
1.2961756256
1.2471249283
1.2328417502
1.2043444832
1.1905078336
1.1830376884
1.1779721073
1.1739462748
1.1704112781
1.1666228505
1.1608146883
1.1499639071
1.1308990864
1.1030599719
1.0708717626
1.0418684304
1.0212841470
1.0094236707
1.0036773894
1.0012724901
1.0003904861
1.0001058273
1.0000251504
1.0000051919
1.0000009199
1.0000001377
1.0000000171
1.0000000017
1.0000000001
1.0000000000
1.0000000000
1.0000000000
1.0000000000
1.0000000000
1.0000000000
1.0000000000
1.0000000000
1.0000000000
1.4993098600
1.4987541424
1.4975755965
1.4948078212
1.4897829309
1.4818476762
1.4706649302
1.4564272408
1.4399050083
1.4223456773
1.4052790305
1.3902578780
1.3785436996
1.3707456609
1.3665178865
1.3645327115
1.3628531642
1.3595294877
1.3530270195
1.3422251484
1.3260234952
1.3025674012
1.2643482329
1.2437456330
1.2190002005
1.2029429065
1.1926323716
1.1855696307
1.1804513130
1.1766104583
1.1732326921
1.1684694861
1.1589993971
1.1409479258
1.1128203185
1.0786766176
1.0468668451
1.0238683104
1.0105341808
1.0040858989
1.0014033644
1.0004271554
1.0001147655
1.0000270231
1.0000055232
1.0000009681
1.0000001433
1.0000000175
1.0000000017
1.0000000001
1.0000000000
1.0000000000
1.0000000000
1.0000000000
1.0000000000
1.0000000000
1.0000000000
1.0000000000
1.0000000000
1.4992768665
1.4986877401
1.4974355075
1.4944955984
1.4891660766
1.4807735655
1.4689928827
1.4540646739
1.4368361475
1.4186519412
1.4011559347
1.3860258658
1.3746325696
1.3676194224
1.3645323550
1.3637918099
1.3631782724
1.3605865566
1.3545282899
1.3440951380
1.3285037979
1.3063772923
1.2736913588
1.2505406201
1.2273491254
1.2103685403
1.1986147413
1.1904138359
1.1846320040
1.1806176791
1.1775653530
1.1736019877
1.1652113655
1.1480076075
1.1197720753
1.0842410252
1.0503738316
1.0256206152
1.0112504838
1.0043333325
1.0014769572
1.0004460686
1.0001189323
1.0000277971
1.0000056413
1.0000009824
1.0000001446
1.0000000176
1.0000000017
1.0000000001
1.0000000000
1.0000000000
1.0000000000
1.0000000000
1.0000000000
1.0000000000
1.0000000000
1.0000000000
1.0000000000
1.4992627788
1.4986572824
1.4973673902
1.4943382884
1.4888491031
1.4802155272
1.4681193702
1.4528280620
1.4352310824
1.4167266133
1.3990221990
1.3838664169
1.3726920922
1.3661585912
1.3637404221
1.3637014942
1.3636546493
1.3614103157
1.3555123317
1.3451666059
1.3297451339
1.3081155470
1.2777764321
1.2537507804
1.2311281943
1.2138197140
1.2014690730
1.1927611811
1.1866716102
1.1825823419
1.1797105691
1.1761825552
1.1683878402
1.1516704502
1.1234113191
1.0871524010
1.0521838555
1.0264998307
1.0115950695
1.0044460020
1.0015082604
1.0004534660