<VTKFile type="UnstructuredGrid" version="0.1">
	<UnstructuredGrid>
		<Piece NumberOfPoints="13548" NumberOfCells="3387">
			<CellData>
				<DataArray type="Int32" Name="ghost" NumberOfComponents="1" Format="ascii">
1
1
1
1
1
1
1
1
1
1
1
1
1
1
1
1
1
1
1
1
1
1
1
1
1
1
1
1
1
1
1
1
1
1
1
1
1
1
1
1
1
1
1
1
1
1
1
1
1
1
1
1
1
1
1
1
1
1
0
0
0
0
0
0
0
0
0
0
0
0
0
0
0
0
0
0
0
0
1
1
0
0
0
0
0
0
0
0
0
0
0
0
0
0
0
0
0
0
0
0
0
0
0
0
0
0
0
0
0
0
0
0
0
1
1
0
0
0
0
0
0
0
0
0
0
0
0
0
0
0
0
0
0
0
0
1
1
0
0
0
0
0
0
0
0
0
0
0
0
0
0
0
0
0
0
0
0
0
0
0
0
0
0
0
0
0
0
0
0
0
1
1
0
0
0
0
0
0
0
0
0
0
0
0
0
0
0
0
0
0
0
0
1
1
0
0
0
0
0
0
0
0
0
0
0
0
0
0
0
0
0
0
0
0
0
0
0
0
0
0
0
0
0
0
0
0
0
1
1
0
0
0
0
0
0
0
0
0
0
0
0
0
0
0
0
0
0
0
0
1
1
0
0
0
0
0
0
0
0
0
0
0
0
0
0
0
0
0
0
0
0
0
0
0
0
0
0
0
0
0
0
0
0
0
1
1
0
0
0
0
0
0
0
0
0
0
0
0
0
0
0
0
0
0
0
0
1
1
0
0
0
0
0
0
0
0
0
0
0
0
0
0
0
0
0
0
0
0
0
0
0
0
0
0
0
0
0
0
0
0
0
1
1
0
0
0
0
0
0
0
0
0
0
0
0
0
0
0
0
0
0
0
0
1
1
0
0
0
0
0
0
0
0
0
0
0
0
0
0
0
0
0
0
0
0
0
0
0
0
0
0
0
0
0
0
0
0
0
1
1
0
0
0
0
0
0
0
0
0
0
0
0
0
0
0
0
0
0
0
0
1
1
0
0
0
0
0
0
0
0
0
0
0
0
0
0
0
0
0
0
0
0
0
0
0
0
0
0
0
0
0
0
0
0
0
1
1
0
0
0
0
0
0
0
0
0
0
0
0
0
0
0
0
0
0
0
0
1
1
0
0
0
0
0
0
0
0
0
0
0
0
0
0
0
0
0
0
0
0
0
0
0
0
0
0
0
0
0
0
0
0
0
1
1
0
0
0
0
0
0
0
0
0
0
0
0
0
0
0
0
0
0
0
0
1
1
0
0
0
0
0
0
0
0
0
0
0
0
0
0
0
0
0
0
0
0
0
0
0
0
0
0
0
0
0
0
0
0
0
1
1
0
0
0
0
0
0
0
0
0
0
0
0
0
0
0
0
0
0
0
0
1
1
0
0
0
0
0
0
0
0
0
0
0
0
0
0
0
0
0
0
0
0
0
0
0
0
0
0
0
0
0
0
0
0
0
1
1
0
0
0
0
0
0
0
0
0
0
0
0
0
0
0
0
0
0
0
0
1
1
0
0
0
0
0
0
0
0
0
0
0
0
0
0
0
0
0
0
0
0
0
0
0
0
0
0
0
0
0
0
0
0
0
1
1
0
0
0
0
0
0
0
0
0
0
0
0
0
0
0
0
0
0
0
0
1
1
0
0
0
0
0
0
0
0
0
0
0
0
0
0
0
0
0
0
0
0
0
0
0
0
0
0
0
0
0
0
0
0
0
1
1
0
0
0
0
0
0
0
0
0
0
0
0
0
0
0
0
0
0
0
0
1
1
0
0
0
0
0
0
0
0
0
0
0
0
0
0
0
0
0
0
0
0
0
0
0
0
0
0
0
0
0
0
0
0
0
1
1
0
0
0
0
0
0
0
0
0
0
0
0
0
0
0
0
0
0
0
0
1
1
0
0
0
0
0
0
0
0
0
0
0
0
0
0
0
0
0
0
0
0
0
0
0
0
0
0
0
0
0
0
0
0
0
1
1
0
0
0
0
0
0
0
0
0
0
0
0
0
0
0
0
0
0
0
0
1
1
0
0
0
0
0
0
0
0
0
0
0
0
0
0
0
0
0
0
0
0
0
0
0
0
0
0
0
0
0
0
0
0
0
1
1
0
0
0
0
0
0
0
0
0
0
0
0
0
0
0
0
0
0
0
0
1
1
0
0
0
0
0
0
0
0
0
0
0
0
0
0
0
0
0
0
0
0
0
0
0
0
0
0
0
0
0
0
0
0
0
1
1
0
0
0
0
0
0
0
0
0
0
0
0
0
0
0
0
0
0
0
0
1
1
0
0
0
0
0
0
0
0
0
0
0
0
0
0
0
0
0
0
0
0
0
0
0
0
0
0
0
0
0
0
0
0
0
1
1
0
0
0
0
0
0
0
0
0
0
0
0
0
0
0
0
0
0
0
0
1
1
0
0
0
0
0
0
0
0
0
0
0
0
0
0
0
0
0
0
0
0
0
0
0
0
0
0
0
0
0
0
0
0
0
1
1
0
0
0
0
0
0
0
0
0
0
0
0
0
0
0
0
0
0
0
0
1
1
0
0
0
0
0
0
0
0
0
0
0
0
0
0
0
0
0
0
0
0
0
0
0
0
0
0
0
0
0
0
0
0
0
1
1
0
0
0
0
0
0
0
0
0
0
0
0
0
0
0
0
0
0
0
0
1
1
0
0
0
0
0
0
0
0
0
0
0
0
0
0
0
0
0
0
0
0
0
0
0
0
0
0
0
0
0
0
0
0
0
1
1
0
0
0
0
0
0
0
0
0
0
0
0
0
0
0
0
0
0
0
0
1
1
0
0
0
0
0
0
0
0
0
0
0
0
0
0
0
0
0
0
0
0
0
0
0
0
0
0
0
0
0
0
0
0
0
1
1
0
0
0
0
0
0
0
0
0
0
0
0
0
0
0
0
0
0
0
0
1
1
0
0
0
0
0
0
0
0
0
0
0
0
0
0
0
0
0
0
0
0
0
0
0
0
0
0
0
0
0
0
0
0
0
1
1
0
0
0
0
0
0
0
0
0
0
0
0
0
0
0
0
0
0
0
0
1
1
0
0
0
0
0
0
0
0
0
0
0
0
0
0
0
0
0
0
0
0
0
0
0
0
0
0
0
0
0
0
0
0
0
1
1
0
0
0
0
0
0
0
0
0
0
0
0
0
0
0
0
0
0
0
0
1
1
0
0
0
0
0
0
0
0
0
0
0
0
0
0
0
0
0
0
0
0
0
0
0
0
0
0
0
0
0
0
0
0
0
1
1
0
0
0
0
0
0
0
0
0
0
0
0
0
0
0
0
0
0
0
0
0
1
1
0
0
0
0
0
0
0
0
0
0
0
0
0
0
0
0
0
0
0
0
0
0
0
0
0
0
0
0
0
0
0
0
0
0
1
1
0
0
0
0
0
0
0
0
0
0
0
0
0
0
0
0
0
0
0
0
0
0
0
0
0
0
0
0
0
0
0
0
0
0
0
0
0
0
0
0
0
0
0
0
0
0
0
0
0
0
0
0
0
0
0
0
0
1
1
0
0
0
0
0
0
0
0
0
0
0
0
0
0
0
0
0
0
0
0
0
0
0
0
0
0
0
0
0
0
0
0
0
0
0
0
0
0
0
0
0
0
0
0
0
0
0
0
0
0
0
0
0
0
0
0
0
1
1
0
0
0
0
0
0
0
0
0
0
0
0
0
0
0
0
0
0
0
0
0
0
0
0
0
0
0
0
0
0
0
0
0
0
0
0
0
0
0
0
0
0
0
0
0
0
0
0
0
0
0
0
0
0
0
0
0
1
1
0
0
0
0
0
0
0
0
0
0
0
0
0
0
0
0
0
0
0
0
0
0
0
0
0
0
0
0
0
0
0
0
0
0
0
0
0
0
0
0
0
0
0
0
0
0
0
0
0
0
0
0
0
0
0
0
0
1
1
0
0
0
0
0
0
0
0
0
0
0
0
0
0
0
0
0
0
0
0
0
0
0
0
0
0
0
0
0
0
0
0
0
0
0
0
0
0
0
0
0
0
0
0
0
0
0
0
0
0
0
0
0
0
0
0
0
1
1
0
0
0
0
0
0
0
0
0
0
0
0
0
0
0
0
0
0
0
0
0
0
0
0
0
0
0
0
0
0
0
0
0
0
0
0
0
0
0
0
0
0
0
0
0
0
0
0
0
0
0
0
0
0
0
0
0
1
1
0
0
0
0
0
0
0
0
0
0
0
0
0
0
0
0
0
0
0
0
0
0
0
0
0
0
0
0
0
0
0
0
0
0
0
0
0
0
0
0
0
0
0
0
0
0
0
0
0
0
0
0
0
0
0
0
0
1
1
0
0
0
0
0
0
0
0
0
0
0
0
0
0
0
0
0
0
0
0
0
0
0
0
0
0
0
0
0
0
0
0
0
0
0
0
0
0
0
0
0
0
0
0
0
0
0
0
0
0
0
0
0
0
0
0
0
1
1
0
0
0
0
0
0
0
0
0
0
0
0
0
0
0
0
0
0
0
0
0
0
0
0
0
0
0
0
0
0
0
0
0
0
0
0
0
0
0
0
0
0
0
0
0
0
0
0
0
0
0
0
0
0
0
0
0
1
1
0
0
0
0
0
0
0
0
0
0
0
0
0
0
0
0
0
0
0
0
0
0
0
0
0
0
0
0
0
0
0
0
0
0
0
0
0
0
0
0
0
0
0
0
0
0
0
0
0
0
0
0
0
0
0
0
0
1
1
0
0
0
0
0
0
0
0
0
0
0
0
0
0
0
0
0
0
0
0
0
1
1
0
0
0
0
0
0
0
0
0
0
0
0
0
0
0
0
0
0
0
0
0
0
0
0
0
0
0
0
0
0
0
0
0
0
1
1
0
0
0
0
0
0
0
0
0
0
0
0
0
0
0
0
0
0
0
0
1
1
0
0
0
0
0
0
0
0
0
0
0
0
0
0
0
0
0
0
0
0
0
0
0
0
0
0
0
0
0
0
0
0
0
1
1
0
0
0
0
0
0
0
0
0
0
0
0
0
0
0
0
0
0
0
0
1
1
0
0
0
0
0
0
0
0
0
0
0
0
0
0
0
0
0
0
0
0
0
0
0
0
0
0
0
0
0
0
0
0
0
1
1
0
0
0
0
0
0
0
0
0
0
0
0
0
0
0
0
0
0
0
0
1
1
0
0
0
0
0
0
0
0
0
0
0
0
0
0
0
0
0
0
0
0
0
0
0
0
0
0
0
0
0
0
0
0
0
1
1
0
0
0
0
0
0
0
0
0
0
0
0
0
0
0
0
0
0
0
0
1
1
0
0
0
0
0
0
0
0
0
0
0
0
0
0
0
0
0
0
0
0
0
0
0
0
0
0
0
0
0
0
0
0
0
1
1
0
0
0
0
0
0
0
0
0
0
0
0
0
0
0
0
0
0
0
0
1
1
0
0
0
0
0
0
0
0
0
0
0
0
0
0
0
0
0
0
0
0
0
0
0
0
0
0
0
0
0
0
0
0
0
1
1
0
0
0
0
0
0
0
0
0
0
0
0
0
0
0
0
0
0
0
0
1
1
0
0
0
0
0
0
0
0
0
0
0
0
0
0
0
0
0
0
0
0
0
0
0
0
0
0
0
0
0
0
0
0
0
1
1
0
0
0
0
0
0
0
0
0
0
0
0
0
0
0
0
0
0
0
0
1
1
0
0
0
0
0
0
0
0
0
0
0
0
0
0
0
0
0
0
0
0
0
0
0
0
0
0
0
0
0
0
0
0
0
1
1
0
0
0
0
0
0
0
0
0
0
0
0
0
0
0
0
0
0
0
0
1
1
0
0
0
0
0
0
0
0
0
0
0
0
0
0
0
0
0
0
0
0
0
0
0
0
0
0
0
0
0
0
0
0
0
1
1
0
0
0
0
0
0
0
0
0
0
0
0
0
0
0
0
0
0
0
0
1
1
0
0
0
0
0
0
0
0
0
0
0
0
0
0
0
0
0
0
0
0
0
0
0
0
0
0
0
0
0
0
0
0
0
1
1
0
0
0
0
0
0
0
0
0
0
0
0
0
0
0
0
0
0
0
0
1
1
0
0
0
0
0
0
0
0
0
0
0
0
0
0
0
0
0
0
0
0
0
0
0
0
0
0
0
0
0
0
0
0
0
1
1
0
0
0
0
0
0
0
0
0
0
0
0
0
0
0
0
0
0
0
0
1
1
0
0
0
0
0
0
0
0
0
0
0
0
0
0
0
0
0
0
0
0
0
0
0
0
0
0
0
0
0
0
0
0
0
1
1
0
0
0
0
0
0
0
0
0
0
0
0
0
0
0
0
0
0
0
0
1
1
0
0
0
0
0
0
0
0
0
0
0
0
0
0
0
0
0
0
0
0
0
0
0
0
0
0
0
0
0
0
0
0
0
1
1
0
0
0
0
0
0
0
0
0
0
0
0
0
0
0
0
0
0
0
0
1
1
0
0
0
0
0
0
0
0
0
0
0
0
0
0
0
0
0
0
0
0
0
0
0
0
0
0
0
0
0
0
0
0
0
1
1
0
0
0
0
0
0
0
0
0
0
0
0
0
0
0
0
0
0
0
0
1
1
0
0
0
0
0
0
0
0
0
0
0
0
0
0
0
0
0
0
0
0
0
0
0
0
0
0
0
0
0
0
0
0
0
1
1
0
0
0
0
0
0
0
0
0
0
0
0
0
0
0
0
0
0
0
0
1
1
0
0
0
0
0
0
0
0
0
0
0
0
0
0
0
0
0
0
0
0
0
0
0
0
0
0
0
0
0
0
0
0
0
1
1
0
0
0
0
0
0
0
0
0
0
0
0
0
0
0
0
0
0
0
0
1
1
0
0
0
0
0
0
0
0
0
0
0
0
0
0
0
0
0
0
0
0
0
0
0
0
0
0
0
0
0
0
0
0
0
1
1
0
0
0
0
0
0
0
0
0
0
0
0
0
0
0
0
0
0
0
0
1
1
0
0
0
0
0
0
0
0
0
0
0
0
0
0
0
0
0
0
0
0
0
0
0
0
0
0
0
0
0
0
0
0
0
1
1
0
0
0
0
0
0
0
0
0
0
0
0
0
0
0
0
0
0
0
0
1
1
0
0
0
0
0
0
0
0
0
0
0
0
0
0
0
0
0
0
0
0
0
0
0
0
0
0
0
0
0
0
0
0
0
1
1
0
0
0
0
0
0
0
0
0
0
0
0
0
0
0
0
0
0
0
0
1
1
0
0
0
0
0
0
0
0
0
0
0
0
0
0
0
0
0
0
0
0
0
0
0
0
0
0
0
0
0
0
0
0
0
1
1
0
0
0
0
0
0
0
0
0
0
0
0
0
0
0
0
0
0
0
0
1
1
0
0
0
0
0
0
0
0
0
0
0
0
0
0
0
0
0
0
0
0
0
0
0
0
0
0
0
0
0
0
0
0
0
1
1
0
0
0
0
0
0
0
0
0
0
0
0
0
0
0
0
0
0
0
0
1
1
0
0
0
0
0
0
0
0
0
0
0
0
0
0
0
0
0
0
0
0
0
0
0
0
0
0
0
0
0
0
0
0
0
1
1
1
1
1
1
1
1
1
1
1
1
1
1
1
1
1
1
1
1
1
1
1
1
1
1
1
1
1
1
1
1
1
1
1
1
1
1
1
1
1
1
1
1
1
1
1
1
1
1
1
1
1
1
1
1
1
1
				</DataArray>
				<DataArray type="Float64" Name="h" NumberOfComponents="1" Format="ascii">
1.3020444353
1.3004625131
1.2996161454
1.2979481454
1.2955065122
1.2923592966
1.2885910175
1.2842987928
1.2795882800
1.2745709961
1.2693621193
1.2640785747
1.2588386551
1.2537613383
1.2489652663
1.2445681657
1.2406844991
1.2374221201
1.2348782383
1.2331333481
1.2322455375
1.2322455375
1.1305373597
1.1296070610
1.1298492052
1.1303155679
1.1309752222
1.1317906173
1.1327241453
1.1337440563
1.1348279645
1.1359662362
1.1371666342
1.1384588084
1.1399007914
1.1415875337
1.1436584542
1.1463036662
1.1497650920
1.1543253377
1.1602783854
1.1678758591
1.1772494409
1.1883239069
1.2007543624
1.2139314735
1.2270749878
1.2393958820
1.2502651228
1.2593163797
1.2664580228
1.2718135501
1.2756285960
1.2781841093
1.2797326869
1.2804588320
1.2804588320
1.3004625131
1.2987084129
1.2978363777
1.2961211603
1.2936184550
1.2904064851
1.2865811249
1.2822507143
1.2775307653
1.2725403532
1.2673992636
1.2622256510
1.2571354676
1.2522417578
1.2476538286
1.2434770978
1.2398114697
1.2367491101
1.2343718167
1.2327465217
1.2319212075
1.2322455375
1.1296070610
1.1286489583
1.1288961250
1.1293728083
1.1300486136
1.1308868254
1.1318511045
1.1329116547
1.1340491310
1.1352585409
1.1365544974
1.1379763642
1.1395952854
1.1415228822
1.1439181922
1.1469918096
1.1510026194
1.1562393787
1.1629811479
1.1714325525
1.1816401563
1.1934122086
1.2062813280
1.2195494095
1.2324164464
1.2441524915
1.2542436774
1.2624539766
1.2688008232
1.2734774184
1.2767603113
1.2789337163
1.2802393865
1.2808483477
1.2804588320
1.3002660279
1.2985226042
1.2976580951
1.2959576400
1.2934764252
1.2902920610
1.2864998325
1.2822076204
1.2775306619
1.2725879285
1.2674991916
1.2623825417
1.2573536217
1.2525247089
1.2480036982
1.2438938238
1.2402920507
1.2372870483
1.2349569293
1.2333652516
1.2325574348
1.2329006371
1.1292373098
1.1282707361
1.1285244097
1.1290134353
1.1297064041
1.1305656796
1.1315544022
1.1326428131
1.1338122257
1.1350589353
1.1363994544
1.1378755589
1.1395610368
1.1415697857
1.1440616438
1.1472447631
1.1513699912
1.1567101294
1.1635195245
1.1719723244
1.1820876333
1.1936627314
1.2062477240
1.2191915628
1.2317566306
1.2432675750
1.2532388697
1.2614323097
1.2678410461
1.2726249350
1.2760286716
1.2783114937
1.2796982271
1.2803499626
1.2798500580
1.2998784993
1.2981559559
1.2973063961
1.2956352886
1.2931968520
1.2900675252
1.2863414559
1.2821256215
1.2775346871
1.2726873523
1.2677032575
1.2627002335
1.2577931630
1.2530926663
1.2487037437
1.2447252802
1.2412484977
1.2383553305
1.2361168783
1.2345903463
1.2338163765
1.2341968903
1.1284968178
1.1275144934
1.1277811945
1.1282949031
1.1290221500
1.1299234389
1.1309608657
1.1321047462
1.1333377011
1.1346585733
1.1360876129
1.1376713028
1.1394885179
1.1416573916
1.1443389275
1.1477359242
1.1520829222
1.1576213492
1.1645581465
1.1730103989
1.1829471781
1.1941469790
1.2061928642
1.2185196586
1.2305035508
1.2415706923
1.2512915870
1.2594290020
1.2659348919
1.2709083882
1.2745337201
1.2770210852
1.2785610744
1.2792941730
1.2785707683
1.2993114189
1.2976189337
1.2967915424
1.2951640122
1.2927892254
1.2897419884
1.2861148390
1.2820134309
1.2775515139
1.2728472237
1.2680197579
1.2631862463
1.2584601018
1.2539491775
1.2497539796
1.2459669313
1.2426709743
1.2399385621
1.2378311240
1.2363972744
1.2356713124
1.2361068497
1.1273835520
1.1263804795
1.1266667494
1.1272174657
1.1279959916
1.1289600026
1.1300700235
1.1312964808
1.1326239303
1.1340549582
1.1356152593
1.1373580811
1.1393694295
1.1417730239
1.1447305903
1.1484358405
1.1530984295
1.1589141780
1.1660238106
1.1744678253
1.1841511863
1.1948310304
1.2061352981
1.2176095588
1.2287763715
1.2391961885
1.2485205055
1.2565241596
1.2631136593
1.2683113206
1.2722192236
1.2749771264
1.2767240612
1.2775682486
1.2765049117
1.2985823278
1.2969273309
1.2961290132
1.2945587326
1.2922677828
1.2893290049
1.2858329506
1.2818835552
1.2775932413
1.2730791166
1.2684593607
1.2638496365
1.2593608434
1.2550966892
1.2511514658
1.2476091300
1.2445421999
1.2420115835
1.2400672895
1.2387480941
1.2380812583
1.2385886540
1.1258945241
1.1248688477
1.1251812890
1.1257813670
1.1266280753
1.1276752498
1.1288813108
1.1302168242
1.1316688619
1.1332448375
1.1349773862
1.1369282152
1.1391919281
1.1418983394
1.1452083995
1.1493020379
1.1543553276
1.1605062232
1.1678157959
1.1762373747
1.1856077400
1.1956657601
1.2060918329
1.2165513981
1.2267242267
1.2363198904
1.2450894655
1.2528373792
1.2594346046
1.2648254673
1.2690191347
1.2720692286
1.2740476080
1.2750183021
1.2734988998
1.2977152921
1.2961025521
1.2953397771
1.2938396220
1.2916516672
1.2888465940
1.2855126902
1.2817517987
1.2776745149
1.2733962537
1.2690333017
1.2646987328
1.2604995423
1.2565336567
1.2528873589
1.2496343237
1.2468350036
1.2445375041
1.2427797035
1.2415904180
1.2409901687
1.2415854192
1.1240255797
1.1229792004
1.1233245379
1.1239864404
1.1249181991
1.1260687439
1.1273938514
1.1288642339
1.1304699788
1.1322242344
1.1341677668
1.1363719539
1.1389407361
1.1420095412
1.1457359110
1.1502804552
1.1557773226
1.1622971709
1.1698142861
1.1781935333
1.1872087356
1.1965881054
1.2060677162
1.2154281473
1.2244976917
1.2331315252
1.2411886480
1.2485218811
1.2549876580
1.2604665798
1.2648782858
1.2681842696
1.2703786189
1.2714710638
1.2693892647
1.2967413524
1.2951718969
1.2944505610
1.2930323328
1.2909650738
1.2883172362
1.2851746541
1.2816367114
1.2778115801
1.2738121115
1.2697515339
1.2657388798
1.2618755495
1.2582518687
1.2549443306
1.2520147934
1.2495105788
1.2474665855
1.2459089098
1.2448574217
1.2443272183
1.2450256760
1.1217705585
1.1207095400
1.1210946758
1.1218310325
1.1228647060
1.1241386058
1.1256053306
1.1272357141
1.1290232303
1.1309874166
1.1331779549
1.1356765052
1.1385962540
1.1420767245
1.1462683887
1.1513065241
1.1572760399
1.1641744403
1.1718885942
1.1802017985
1.1888370894
1.1975220781
1.2060479336
1.2142959634
1.2222204885
1.2298036656
1.2370084838
1.2437499218
1.2498952236
1.2552874732
1.2597750650
1.2632346773
1.2655813412
1.2667656051
1.2640406372
1.2956978178
1.2941677530
1.2934930170
1.2921671021
1.2902362384
1.2877666779
1.2848416751
1.2815577859
1.2780200723
1.2743377767
1.2706196681
1.2669690390
1.2634798124
1.2602328310
1.2572931497
1.2547096410
1.2525160360
1.2507344331
1.2493804598
1.2484670930
1.2480062938
1.2488228410
1.1191196501
1.1180544360
1.1184865396
1.1193102520
1.1204627870
1.1218798878
1.1235104644
1.1253253994
1.1273217396
1.1295257256
1.1319962354
1.1348251360
1.1381339013
1.1420636766
1.1467534578
1.1523072568
1.1587551680
1.1660196978
1.1739055767
1.1821274792
1.1903736324
1.1983813187
1.2059933131
1.2131723157
1.2199693429
1.2264655176
1.2327127094
1.2386922973
1.2443043003
1.2493855291
1.2537432685
1.2571911769
1.2595769104
1.2607960173
1.2573930372
1.2946272534
1.2931266256
1.2925027239
1.2912776901
1.2894962680
1.2872225969
1.2845372628
1.2815336177
1.2783128664
1.2749794859
1.2716362534
1.2683789091
1.2652919788
1.2624450308
1.2598902861
1.2576628904
1.2557830984
1.2542613020
1.2531047500
1.2523224442
1.2519263888
1.2528754680
1.1160569416
1.1150024782
1.1154890837
1.1164134139
1.1177018890
1.1192819522
1.1210983769
1.1231219621
1.1253532660
1.1278251145
1.1306052682
1.1337949891
1.1375222502
1.1419265856
1.1471307848
1.1532023627
1.1601133490
1.1677134114
1.1757350897
1.1838408319
1.1917008187
1.1990707674
1.2058396635
1.2120313883
1.2177636696
1.2231855785
1.2284155401
1.2334953422
1.2383707976
1.2429008208
1.2468869863
1.2501133080
1.2523854080
1.2535594673
1.2495097157
1.2935754971
1.2920873759
1.2915174146
1.2903995835
1.2887773020
1.2867127043
1.2842836318
1.2815798590
1.2786979746
1.2757365214
1.2727907563
1.2699471094
1.2672789269
1.2648429578
1.2626775513
1.2608038265
1.2592291577
1.2579538058
1.2569792425
1.2563140528
1.2559742807
1.2570696552
1.1125569022
1.1115327305
1.1120817921
1.1131203221
1.1145618115
1.1163243883
1.1183483889
1.1206043412
1.1230959436
1.1258619695
1.1289780822
1.1325533813
1.1367198329
1.1416116563
1.1473308638
1.1539045100
1.1612459402
1.1691376597
1.1772529842
1.1852194700
1.1927044911
1.1994885154
1.2055004129
1.2108069368
1.2155661972
1.2199665921
1.2241688267
1.2282618208
1.2322398783
1.2360037287
1.2393819548
1.2421669422
1.2441572511
1.2451954752
1.2406084102
1.2925881906
1.2910881687
1.2905739261
1.2895669522
1.2881094878
1.2862617551
1.2840987759
1.2817063977
1.2791758929
1.2765988023
1.2740614943
1.2716395609
1.2693936950
1.2673666625
1.2655823245
1.2640478805
1.2627587468
1.2617068495
1.2608906867
1.2603223937
1.2600268600
1.2612809954
1.1085794096
1.1076096859
1.1082296737
1.1093962533
1.1110076488
1.1129719512
1.1152250337
1.1177369263
1.1205137200
1.1235988883
1.1270742990
1.1310546221
1.1356727675
1.1410538080
1.1472750341
1.1543207425
1.1620475591
1.1701791438
1.1783438408
1.1861505937
1.1932763506
1.1995300594
1.2048741050
1.2094032404
1.2132955428
1.2167559740
1.2199660212
1.2230459536
1.2260334365
1.2288802161
1.2314655921
1.2336241944
1.2351837541
1.2360032479
1.2310629464
1.2917068365
1.2901631423
1.2897049005
1.2888094193
1.2875178660
1.2858886119
1.2839937857
1.2819150178
1.2797376974
1.2775455150
1.2754148909
1.2734094397
1.2715761792
1.2699432038
1.2685197062
1.2672993941
1.2662667778
1.2654071683
1.2647187612
1.2642214032
1.2639545540
1.2653776525
1.1040645066
1.1031778833
1.1038779113
1.1051865132
1.1069841917
1.1091688732
1.1116724175
1.1144641229
1.1175512775
1.1209801052
1.1248362151
1.1292369292
1.1343127080
1.1401758525
1.1468759804
1.1543541596
1.1624144767
1.1707316325
1.1789030292
1.1865329621
1.1933170807
1.1990944144
1.2038552069
1.2077113723
1.2108470677
1.2134683324
1.2157616754
1.2178647921
1.2198499891
1.2217203768
1.2234177992
1.2248414643
1.2258760227
1.2264221311
1.2213643372
1.2909644161
1.2893387723
1.2889352239
1.2881486591
1.2870192287
1.2856034806
1.2839705916
1.2821977837
1.2803641995
1.2785451510
1.2768064769
1.2751991834
1.2737561341
1.2724905768
1.2713972553
1.2704570056
1.2696443863
1.2689394187
1.2683421802
1.2678843807
1.2676269597
1.2692257658
1.0989271019
1.0981563412
1.0989463111
1.1004106506
1.1024098041
1.1048325216
1.1076078986
1.1107043286
1.1141285725
1.1179268365
1.1221851785
1.1270200449
1.1325558834
1.1388890627
1.1460397704
1.1539071037
1.1622483997
1.1706997880
1.1788404447
1.1862811531
1.1927424555
1.1980937253
1.2023487158
1.2056296821
1.2081190428
1.2100154800
1.2115013641
1.2127221855
1.2137761415
1.2147122842
1.2155354016
1.2162165303
1.2167095885
1.2169699033
1.2120440438
1.2903811250
1.2886304170
1.2882786692
1.2875952438
1.2866192908
1.2854055399
1.2840201952
1.2825360124
1.2810257787
1.2795562813
1.2781826412
1.2769431906
1.2758567325
1.2749219870
1.2741197850
1.2734187504
1.2727841204
1.2721912424
1.2716434027
1.2711881190
1.2709163958
1.2726929847
1.0930514008
1.0924324612
1.0933235371
1.0949567968
1.0971708349
1.0998481212
1.1029174657
1.1063463083
1.1101384946
1.1143364475
1.1190224256
1.1243078494
1.1303075212
1.1370993200
1.1446734516
1.1528897218
1.1614654152
1.1700081037
1.1780895628
1.1853354873
1.1914953195
1.1964685713
1.2002898471
1.2030885341
1.2050424723
1.2063402720
1.2071566770
1.2076397613
1.2079063460
1.2080427555
1.2081080878
1.2081382707
1.2081522320
1.2081581606
1.2035859613
1.2899614614
1.2880401789
1.2877358671
1.2871468403
1.2863112392
1.2852819809
1.2841223369
1.2829006943
1.2816836524
1.2805297296
1.2794836992
1.2785717154
1.2777991523
1.2771509447
1.2765947511
1.2760875291
1.2755852894
1.2750583061
1.2745131218
1.2740165247
1.2737005896
1.2756513642
1.0862889140
1.0858592837
1.0868650220
1.0886798167
1.0911199761
1.0940676839
1.0974557149
1.1012506352
1.1054500723
1.1100875895
1.1152362004
1.1209974134
1.1274726860
1.1347194614
1.1426984718
1.1512339114
1.1600099696
1.1686147334
1.1766214174
1.1836768710
1.1895621541
1.1942069631
1.1976658791
1.2000751028
1.2016085717
1.2024458710
1.2027542516
1.2026820238
1.2023584741
1.2018966345
1.2013953822
1.2009387284
1.2005941735
1.2004096425
1.1963534079
1.2896931856
1.2875564412
1.2872939557
1.2867880901
1.2860759659
1.2852087186
1.2842468054
1.2832545063
1.2822926663
1.2814121657
1.2806482616
1.2800159204
1.2795081711
1.2790972201
1.2787383744
1.2783772169
1.2779599146
1.2774499455
1.2768553213
1.2762645469
1.2758651553
1.2779802496
1.0784618454
1.0782580411
1.0793968017
1.0814056460
1.0840810999
1.0873159016
1.0910533923
1.0952592839
1.0999202597
1.1050541003
1.1107175338
1.1169963385
1.1239748081
1.1316885577
1.1400702023
1.1489125809
1.1578735152
1.1665294910
1.1744622627
1.1813445912
1.1869913615
1.1913631663
1.1945352222
1.1966521371
1.1978865010
1.1984115469
1.1983884308
1.1979641229
1.1972742464
1.1964468990
1.1956036923
1.1948559461
1.1942984611
1.1940012719
1.1905500038
1.2895484264
1.2871552705
1.2869280589
1.2864922380
1.2858839204
1.2851525345
1.2843559305
1.2835546930
1.2828045745
1.2821497550
1.2816171761
1.2812119898
1.2809162883
1.2806907919
1.2804792359
1.2802157555
1.2798352095
1.2792909233
1.2785879855
1.2778369878
1.2772997655
1.2795630135
1.0693720779
1.0694263739
1.0707267504
1.0729444162
1.0758645935
1.0794085631
1.0835394240
1.0882212131
1.0934224796
1.0991355883
1.1053918637
1.1122545003
1.1197867952
1.1280017804
1.1368060560
1.1459656583
1.1551182660
1.1638354678
1.1717133257
1.1784544136
1.1839096376
1.1880719049
1.1910387087
1.1929654585
1.1940262835
1.1943905372
1.1942140815
1.1936402406
1.1928043296
1.1918378980
1.1908690325
1.1900170971
1.1893848323
1.1890485350
1.1862217783
1.2894869872
1.2868036697
1.2866045707
1.2862244760
1.2856985331
1.2850745947
1.2844081949
1.2837567581
1.2831717765
1.2826918862
1.2823371640
1.2821045660
1.2819668388
1.2818745124
1.2817603794
1.2815466121
1.2811543564
1.2805214654
1.2796419769
1.2786447143
1.2778897486
1.2802792036
1.0588201597
1.0591571041
1.0606689445
1.0631180255
1.0662990034
1.0701895392
1.0747833749
1.0800391445
1.0858957103
1.0923065644
1.0992662215
1.1068078415
1.1149705482
1.1237451897
1.1330153976
1.1425251951
1.1518977583
1.1607054252
1.1685633567
1.1752073742
1.1805267276
1.1845484808
1.1873943217
1.1892326563
1.1902412417
1.1905867500
1.1904191363
1.1898747409
1.1890818923
1.1881655166
1.1872473235
1.1864404894
1.1858421020
1.1855239912
1.1832873929
1.2894614122
1.2864641786
1.2862857438
1.2859465034
1.2854807239
1.2849348695
1.2843625208
1.2838185663
1.2833511773
1.2829947254
1.2827640056
1.2826495063
1.2826162659
1.2826058515
1.2825405008
1.2823294073
1.2818765977
1.2810968140
1.2799595304
1.2785994845
1.2775024742
1.2799913753
1.0466269564
1.0472608516
1.0490764518
1.0517983400
1.0552770392
1.0595862459
1.0647590409
1.0707375879
1.0774123308
1.0846799467
1.0924854665
1.1008257834
1.1097150956
1.1191248405
1.1289202454
1.1388284634
1.1484631908
1.1574021493
1.1652835460
1.1718794795
1.1771198201
1.1810676063
1.1838702941
1.1857106509
1.1867708910
1.1872147791
1.1871846012
1.1868060527
1.1861948588
1.1854620978
1.1847149465
1.1840522284
1.1835582067
1.1832949377
1.1815800996
1.2894225161
1.2860996188
1.2859343611
1.2856210445
1.2851931731
1.2846960548
1.2841817280
1.2837032207
1.2833063718
1.2830226139
1.2828630795
1.2828135255
1.2828328631
1.2828547605
1.2827909585
1.2825360765
1.2819725263
1.2809815983
1.2794870382
1.2776007944
1.2759571508
1.2785152049
1.0326330503
1.0335679142
1.0358639667
1.0389431738
1.0428109017
1.0476845758
1.0536324359
1.0605542411
1.0682639077
1.0765809624
1.0853911814
1.0946544762
1.1043650672
1.1144820518
1.1248591201
1.1352121363
1.1451495383
1.1542578524
1.1622012459
1.1687904595
1.1739978281
1.1779237031
1.1807421515
1.1826506691
1.1838356582
1.1844568559
1.1846468154
1.1845176082
1.1841687013
1.1836934317
1.1831807913
1.1827122301
1.1823570182
1.1821661184
1.1808887912
1.2893246800
1.2856774533
1.2855179708
1.2852158251
1.2848038914
1.2843265669
1.2838347686
1.2833803430
1.2830077860
1.2827469174
1.2826068358
1.2825703085
1.2825916686
1.2825976198
1.2824891275
1.2821439609
1.2814171122
1.2801428316
1.2781673011
1.2755201864
1.2729738500
1.2755685552
1.0166135652
1.0178475677
1.0209787984
1.0246108606
1.0290975145
1.0348316236
1.0418790799
1.0500507059
1.0590517247
1.0686118625
1.0785606564
1.0888331157
1.0994183653
1.1102763413
1.1212586476
1.1320754171
1.1423325749
1.1516270034
1.1596501056
1.1662523763
1.1714494708
1.1753794841
1.1782430239
1.1802518176
1.1815955461
1.1824286102
1.1828722499
1.1830232486
1.1829633288
1.1827670809
1.1825049795
1.1822414312
1.1820315008
1.1819159301
1.1809896441
1.2891308748
1.2851738139
1.2850127583
1.2847071170
1.2842892247
1.2838027437
1.2832977910
1.2828255947
1.2824301801
1.2821410026
1.2819667749
1.2818891823
1.2818598595
1.2817999283
1.2815996534
1.2811175480
1.2801741482
1.2785390231
1.2759340205
1.2721902635
1.2680861877
1.2706839551
0.9978659588
0.9994039088
1.0042049973
1.0089461222
1.0146384318
1.0218114783
1.0304525737
1.0402394485
1.0507620850
1.0616800432
1.0727981612
1.0840592181
1.0954744640
1.1070234521
1.1185660611
1.1298103745
1.1403594722
1.1498189715
1.1579060601
1.1645099354
1.1696887252
1.1736173463
1.1765218453
1.1786270060
1.1801246383
1.1811627821
1.1818506222
1.1822693473
1.1824831991
1.1825489501
1.1825201114
1.1824460113
1.1823695444
1.1823229190
1.1816675638
1.2888172255
1.2845771872
1.2844071406
1.2840831121
1.2836368076
1.2831110423
1.2825550425
1.2820194373
1.2815479997
1.2811703684
1.2808959365
1.2807070065
1.2805549456
1.2803584787
1.2800006886
1.2793235029
1.2781116231
1.2760546937
1.2726879854
1.2674242063
1.2605073278
1.2630743947
0.9733964970
0.9752828241
0.9846582599
0.9923825702
1.0006822274
1.0102606046
1.0210707333
1.0327300881
1.0448008277
1.0569575558
1.0690513586
1.0810849653
1.0931253400
1.1051892757
1.1171504734
1.1287125955
1.1394696415
1.1490292332
1.1571287537
1.1636918289
1.1688157669
1.1727096278
1.1756226740
1.1777910244
1.1794074516
1.1806130620
1.1815050556
1.1821497608
1.1825953066
1.1828825735
1.1830504266
1.1831355568
1.1831709388
1.1831819819
1.1827279883
1.2883786980
1.2838934605
1.2837070894
1.2833497912
1.2828522001
1.2822555610
1.2816071399
1.2809554907
1.2803421333
1.2797942605
1.2793186541
1.2788942896
1.2784680551
1.2779531508
1.2772264579
1.2761250090
1.2744323373
1.2718312674
1.2677714283
1.2611449551
1.2499115578
1.2524174923
0.9294132990
0.9318266843
0.9607727821
0.9773805234
0.9907514830
1.0036061667
1.0166398783
1.0298063635
1.0428729824
1.0556707090
1.0681775020
1.0804961731
1.0927634084
1.1050312950
1.1171764191
1.1288829926
1.1397204403
1.1492849224
1.1573234642
1.1637861935
1.1688036873
1.1726147569
1.1754887420
1.1776710919
1.1793545735
1.1806733147
1.1817132937
1.1825274215
1.1831496840
1.1836073857
1.1839272043
1.1841355551
1.1842575233
1.1843132107
1.1840025541
1.2878352879
1.2831516359
1.2829427806
1.2825395872
1.2819709512
1.2812753734
1.2804962271
1.2796768861
1.2788515823
1.2780367726
1.2772227344
1.2763611568
1.2753520770
1.2740266513
1.2721142539
1.2691814374
1.2645043204
1.2567788314
1.2434364427
1.2188824064
1.1695311066
1.0571663144
0.8910440355
0.9433403928
0.9942927802
0.9873609114
0.9912590061
0.9956536495
1.0026051705
1.0118800953
1.0227502990
1.0344767524
1.0465007150
1.0585070824
1.0704129584
1.0822976014
1.0942826952
1.1063962301
1.1184748087
1.1301515284
1.1409476025
1.1504302278
1.1583432444
1.1646538848
1.1695191224
1.1732026614
1.1759907936
1.1781366670
1.1798326729
1.1812066139
1.1823346735
1.1832583276
1.1839997425
1.1845750993
1.1850012770
1.1852965607
1.1854798917
1.1855672940
1.1853524828
1.2872321299
1.2824036958
1.2821693021
1.2817140590
1.2810650268
1.2802578171
1.2793317452
1.2783249158
1.2772645103
1.2761573975
1.2749807151
1.2736671968
1.2720891970
1.2700384073
1.2671896917
1.2630417718
1.2568085726
1.2471966968
1.2319417922
1.2067667685
1.1629184159
1.0818923172
0.8894472201
0.9425919708
0.9717666613
0.9787882048
0.9881586841
0.9968005336
1.0061468341
1.0165049976
1.0276396346
1.0391573932
1.0507300431
1.0621952778
1.0735716616
1.0850075881
1.0966588355
1.1085556845
1.1205081410
1.1321042683
1.1428186961
1.1521883840
1.1599509444
1.1660868870
1.1707757945
1.1743032401
1.1769706387
1.1790382521
1.1806986279
1.1820746685
1.1832347991
1.1842114702
1.1850175988
1.1856607660
1.1861503725
1.1864985609
1.1867196819
1.1868267431
1.1866686360
1.2866271773
1.2817123597
1.2814530739
1.2809472839
1.2802206488
1.2793066216
1.2782416036
1.2770601971
1.2757853252
1.2744187691
1.2729318616
1.2712504348
1.2692388804
1.2666812249
1.2632480185
1.2584464810
1.2515365175
1.2413662571
1.2260565243
1.2023586134
1.1643152581
1.1024805450
0.9776439755
0.9813561606
0.9868904377
0.9888920829
0.9950236646
1.0028639184
1.0121110386
1.0224033896
1.0333063572
1.0444212527
1.0554812054
1.0663980250
1.0772523126
1.0882334913
1.0995339914
1.1111905933
1.1229906897
1.1344819196
1.1450958947
1.1543404004
1.1619451598
1.1679004661
1.1724044654
1.1757612143
1.1782852274
1.1802433116
1.1818288711
1.1831615757
1.1843043648
1.1852832559
1.1861046030
1.1867699560
1.1872835430
1.1876533037
1.1878904878
1.1880060906
1.1878711469
1.2860748463
1.2811349648
1.2808544014
1.2803056056
1.2795134548
1.2785102273
1.2773308272
1.2760082903
1.2745639539
1.2729982234
1.2712817896
1.2693408704
1.2670421044
1.2641756801
1.2604256380
1.2553280517
1.2482052072
1.2380398779
1.2232510139
1.2012771458
1.1677955087
1.1172677947
1.0296325258
1.0105761344
1.0026784839
0.9999669361
1.0032066610
1.0098461190
1.0185830755
1.0285380862
1.0390740311
1.0497481966
1.0603152910
1.0707290081
1.0811123522
1.0916878405
1.1026616515
1.1140844168
1.1257263389
1.1371017817
1.1476063429
1.1567225929
1.1641722551
1.1699521885
1.1742745822
1.1774578993
1.1798271486
1.1816547378
1.1831354440
1.1843873233
1.1854701278
1.1864060974
1.1871977888
1.1878433741
1.1883442985
1.1887063191
1.1889391434
1.1890528083
1.1889101258
1.2856149376
1.2807126022
1.2804161848
1.2798355320
1.2789953080
1.2779274781
1.2766665987
1.2752455317
1.2736857046
1.2719881283
1.2701251156
1.2680259130
1.2655624021
1.2625338868
1.2586399057
1.2534437982
1.2463183375
1.2363433139
1.2221341045
1.2015509168
1.1712179717
1.1274374402
1.0599288777
1.0309878989
1.0158261615
1.0096448425
1.0107228132
1.0162926537
1.0244900122
1.0340858414
1.0442860077
1.0546005936
1.0647869881
1.0748198024
1.0848466814
1.0951122283
1.1058313053
1.1170602064
1.1285608896
1.1398244226
1.1502208883
1.1592146334
1.1665210988
1.1721410922
1.1762961114
1.1793143944
1.1815282639
1.1832143303
1.1845689572
1.1857100415
1.1866963898
1.1875491487
1.1882699454
1.1888563844
1.1893097106
1.1896357250
1.1898443410
1.1899458361
1.1897641732
1.2852695192
1.2804670363
1.2801610065
1.2795612266
1.2786925882
1.2775873770
1.2762805712
1.2748056382
1.2731848238
1.2714202990
1.2694861629
1.2673143420
1.2647808206
1.2616914357
1.2577561603
1.2525555770
1.2454923456
1.2357002220
1.2218978990
1.2021572243
1.1735622479
1.1331948424
1.0750403310
1.0427199441
1.0246694307
1.0168336654
1.0167799756
1.0216790514
1.0294619449
1.0387538268
1.0486881707
1.0587481640
1.0686862518
1.0784813221
1.0882884575
1.0983598747
1.1089139304
1.1200060504
1.1313946048
1.1425585093
1.1528547420
1.1617382410