<VTKFile type="UnstructuredGrid" version="0.1">
	<UnstructuredGrid>
		<Piece NumberOfPoints="13548" NumberOfCells="3387">
			<CellData>
				<DataArray type="Int32" Name="ghost" NumberOfComponents="1" Format="ascii">
1
1
1
1
1
1
1
1
1
1
1
1
1
1
1
1
1
1
1
1
1
1
1
1
1
1
1
1
1
1
1
1
1
1
1
1
1
1
1
1
1
1
1
1
1
1
1
1
1
1
1
1
1
1
1
1
1
1
0
0
0
0
0
0
0
0
0
0
0
0
0
0
0
0
0
0
0
0
1
1
0
0
0
0
0
0
0
0
0
0
0
0
0
0
0
0
0
0
0
0
0
0
0
0
0
0
0
0
0
0
0
0
0
1
1
0
0
0
0
0
0
0
0
0
0
0
0
0
0
0
0
0
0
0
0
1
1
0
0
0
0
0
0
0
0
0
0
0
0
0
0
0
0
0
0
0
0
0
0
0
0
0
0
0
0
0
0
0
0
0
1
1
0
0
0
0
0
0
0
0
0
0
0
0
0
0
0
0
0
0
0
0
1
1
0
0
0
0
0
0
0
0
0
0
0
0
0
0
0
0
0
0
0
0
0
0
0
0
0
0
0
0
0
0
0
0
0
1
1
0
0
0
0
0
0
0
0
0
0
0
0
0
0
0
0
0
0
0
0
1
1
0
0
0
0
0
0
0
0
0
0
0
0
0
0
0
0
0
0
0
0
0
0
0
0
0
0
0
0
0
0
0
0
0
1
1
0
0
0
0
0
0
0
0
0
0
0
0
0
0
0
0
0
0
0
0
1
1
0
0
0
0
0
0
0
0
0
0
0
0
0
0
0
0
0
0
0
0
0
0
0
0
0
0
0
0
0
0
0
0
0
1
1
0
0
0
0
0
0
0
0
0
0
0
0
0
0
0
0
0
0
0
0
1
1
0
0
0
0
0
0
0
0
0
0
0
0
0
0
0
0
0
0
0
0
0
0
0
0
0
0
0
0
0
0
0
0
0
1
1
0
0
0
0
0
0
0
0
0
0
0
0
0
0
0
0
0
0
0
0
1
1
0
0
0
0
0
0
0
0
0
0
0
0
0
0
0
0
0
0
0
0
0
0
0
0
0
0
0
0
0
0
0
0
0
1
1
0
0
0
0
0
0
0
0
0
0
0
0
0
0
0
0
0
0
0
0
1
1
0
0
0
0
0
0
0
0
0
0
0
0
0
0
0
0
0
0
0
0
0
0
0
0
0
0
0
0
0
0
0
0
0
1
1
0
0
0
0
0
0
0
0
0
0
0
0
0
0
0
0
0
0
0
0
1
1
0
0
0
0
0
0
0
0
0
0
0
0
0
0
0
0
0
0
0
0
0
0
0
0
0
0
0
0
0
0
0
0
0
1
1
0
0
0
0
0
0
0
0
0
0
0
0
0
0
0
0
0
0
0
0
1
1
0
0
0
0
0
0
0
0
0
0
0
0
0
0
0
0
0
0
0
0
0
0
0
0
0
0
0
0
0
0
0
0
0
1
1
0
0
0
0
0
0
0
0
0
0
0
0
0
0
0
0
0
0
0
0
1
1
0
0
0
0
0
0
0
0
0
0
0
0
0
0
0
0
0
0
0
0
0
0
0
0
0
0
0
0
0
0
0
0
0
1
1
0
0
0
0
0
0
0
0
0
0
0
0
0
0
0
0
0
0
0
0
1
1
0
0
0
0
0
0
0
0
0
0
0
0
0
0
0
0
0
0
0
0
0
0
0
0
0
0
0
0
0
0
0
0
0
1
1
0
0
0
0
0
0
0
0
0
0
0
0
0
0
0
0
0
0
0
0
1
1
0
0
0
0
0
0
0
0
0
0
0
0
0
0
0
0
0
0
0
0
0
0
0
0
0
0
0
0
0
0
0
0
0
1
1
0
0
0
0
0
0
0
0
0
0
0
0
0
0
0
0
0
0
0
0
1
1
0
0
0
0
0
0
0
0
0
0
0
0
0
0
0
0
0
0
0
0
0
0
0
0
0
0
0
0
0
0
0
0
0
1
1
0
0
0
0
0
0
0
0
0
0
0
0
0
0
0
0
0
0
0
0
1
1
0
0
0
0
0
0
0
0
0
0
0
0
0
0
0
0
0
0
0
0
0
0
0
0
0
0
0
0
0
0
0
0
0
1
1
0
0
0
0
0
0
0
0
0
0
0
0
0
0
0
0
0
0
0
0
1
1
0
0
0
0
0
0
0
0
0
0
0
0
0
0
0
0
0
0
0
0
0
0
0
0
0
0
0
0
0
0
0
0
0
1
1
0
0
0
0
0
0
0
0
0
0
0
0
0
0
0
0
0
0
0
0
1
1
0
0
0
0
0
0
0
0
0
0
0
0
0
0
0
0
0
0
0
0
0
0
0
0
0
0
0
0
0
0
0
0
0
1
1
0
0
0
0
0
0
0
0
0
0
0
0
0
0
0
0
0
0
0
0
1
1
0
0
0
0
0
0
0
0
0
0
0
0
0
0
0
0
0
0
0
0
0
0
0
0
0
0
0
0
0
0
0
0
0
1
1
0
0
0
0
0
0
0
0
0
0
0
0
0
0
0
0
0
0
0
0
1
1
0
0
0
0
0
0
0
0
0
0
0
0
0
0
0
0
0
0
0
0
0
0
0
0
0
0
0
0
0
0
0
0
0
1
1
0
0
0
0
0
0
0
0
0
0
0
0
0
0
0
0
0
0
0
0
1
1
0
0
0
0
0
0
0
0
0
0
0
0
0
0
0
0
0
0
0
0
0
0
0
0
0
0
0
0
0
0
0
0
0
1
1
0
0
0
0
0
0
0
0
0
0
0
0
0
0
0
0
0
0
0
0
1
1
0
0
0
0
0
0
0
0
0
0
0
0
0
0
0
0
0
0
0
0
0
0
0
0
0
0
0
0
0
0
0
0
0
1
1
0
0
0
0
0
0
0
0
0
0
0
0
0
0
0
0
0
0
0
0
1
1
0
0
0
0
0
0
0
0
0
0
0
0
0
0
0
0
0
0
0
0
0
0
0
0
0
0
0
0
0
0
0
0
0
1
1
0
0
0
0
0
0
0
0
0
0
0
0
0
0
0
0
0
0
0
0
1
1
0
0
0
0
0
0
0
0
0
0
0
0
0
0
0
0
0
0
0
0
0
0
0
0
0
0
0
0
0
0
0
0
0
1
1
0
0
0
0
0
0
0
0
0
0
0
0
0
0
0
0
0
0
0
0
1
1
0
0
0
0
0
0
0
0
0
0
0
0
0
0
0
0
0
0
0
0
0
0
0
0
0
0
0
0
0
0
0
0
0
1
1
0
0
0
0
0
0
0
0
0
0
0
0
0
0
0
0
0
0
0
0
0
1
1
0
0
0
0
0
0
0
0
0
0
0
0
0
0
0
0
0
0
0
0
0
0
0
0
0
0
0
0
0
0
0
0
0
0
1
1
0
0
0
0
0
0
0
0
0
0
0
0
0
0
0
0
0
0
0
0
0
0
0
0
0
0
0
0
0
0
0
0
0
0
0
0
0
0
0
0
0
0
0
0
0
0
0
0
0
0
0
0
0
0
0
0
0
1
1
0
0
0
0
0
0
0
0
0
0
0
0
0
0
0
0
0
0
0
0
0
0
0
0
0
0
0
0
0
0
0
0
0
0
0
0
0
0
0
0
0
0
0
0
0
0
0
0
0
0
0
0
0
0
0
0
0
1
1
0
0
0
0
0
0
0
0
0
0
0
0
0
0
0
0
0
0
0
0
0
0
0
0
0
0
0
0
0
0
0
0
0
0
0
0
0
0
0
0
0
0
0
0
0
0
0
0
0
0
0
0
0
0
0
0
0
1
1
0
0
0
0
0
0
0
0
0
0
0
0
0
0
0
0
0
0
0
0
0
0
0
0
0
0
0
0
0
0
0
0
0
0
0
0
0
0
0
0
0
0
0
0
0
0
0
0
0
0
0
0
0
0
0
0
0
1
1
0
0
0
0
0
0
0
0
0
0
0
0
0
0
0
0
0
0
0
0
0
0
0
0
0
0
0
0
0
0
0
0
0
0
0
0
0
0
0
0
0
0
0
0
0
0
0
0
0
0
0
0
0
0
0
0
0
1
1
0
0
0
0
0
0
0
0
0
0
0
0
0
0
0
0
0
0
0
0
0
0
0
0
0
0
0
0
0
0
0
0
0
0
0
0
0
0
0
0
0
0
0
0
0
0
0
0
0
0
0
0
0
0
0
0
0
1
1
0
0
0
0
0
0
0
0
0
0
0
0
0
0
0
0
0
0
0
0
0
0
0
0
0
0
0
0
0
0
0
0
0
0
0
0
0
0
0
0
0
0
0
0
0
0
0
0
0
0
0
0
0
0
0
0
0
1
1
0
0
0
0
0
0
0
0
0
0
0
0
0
0
0
0
0
0
0
0
0
0
0
0
0
0
0
0
0
0
0
0
0
0
0
0
0
0
0
0
0
0
0
0
0
0
0
0
0
0
0
0
0
0
0
0
0
1
1
0
0
0
0
0
0
0
0
0
0
0
0
0
0
0
0
0
0
0
0
0
0
0
0
0
0
0
0
0
0
0
0
0
0
0
0
0
0
0
0
0
0
0
0
0
0
0
0
0
0
0
0
0
0
0
0
0
1
1
0
0
0
0
0
0
0
0
0
0
0
0
0
0
0
0
0
0
0
0
0
0
0
0
0
0
0
0
0
0
0
0
0
0
0
0
0
0
0
0
0
0
0
0
0
0
0
0
0
0
0
0
0
0
0
0
0
1
1
0
0
0
0
0
0
0
0
0
0
0
0
0
0
0
0
0
0
0
0
0
1
1
0
0
0
0
0
0
0
0
0
0
0
0
0
0
0
0
0
0
0
0
0
0
0
0
0
0
0
0
0
0
0
0
0
0
1
1
0
0
0
0
0
0
0
0
0
0
0
0
0
0
0
0
0
0
0
0
1
1
0
0
0
0
0
0
0
0
0
0
0
0
0
0
0
0
0
0
0
0
0
0
0
0
0
0
0
0
0
0
0
0
0
1
1
0
0
0
0
0
0
0
0
0
0
0
0
0
0
0
0
0
0
0
0
1
1
0
0
0
0
0
0
0
0
0
0
0
0
0
0
0
0
0
0
0
0
0
0
0
0
0
0
0
0
0
0
0
0
0
1
1
0
0
0
0
0
0
0
0
0
0
0
0
0
0
0
0
0
0
0
0
1
1
0
0
0
0
0
0
0
0
0
0
0
0
0
0
0
0
0
0
0
0
0
0
0
0
0
0
0
0
0
0
0
0
0
1
1
0
0
0
0
0
0
0
0
0
0
0
0
0
0
0
0
0
0
0
0
1
1
0
0
0
0
0
0
0
0
0
0
0
0
0
0
0
0
0
0
0
0
0
0
0
0
0
0
0
0
0
0
0
0
0
1
1
0
0
0
0
0
0
0
0
0
0
0
0
0
0
0
0
0
0
0
0
1
1
0
0
0
0
0
0
0
0
0
0
0
0
0
0
0
0
0
0
0
0
0
0
0
0
0
0
0
0
0
0
0
0
0
1
1
0
0
0
0
0
0
0
0
0
0
0
0
0
0
0
0
0
0
0
0
1
1
0
0
0
0
0
0
0
0
0
0
0
0
0
0
0
0
0
0
0
0
0
0
0
0
0
0
0
0
0
0
0
0
0
1
1
0
0
0
0
0
0
0
0
0
0
0
0
0
0
0
0
0
0
0
0
1
1
0
0
0
0
0
0
0
0
0
0
0
0
0
0
0
0
0
0
0
0
0
0
0
0
0
0
0
0
0
0
0
0
0
1
1
0
0
0
0
0
0
0
0
0
0
0
0
0
0
0
0
0
0
0
0
1
1
0
0
0
0
0
0
0
0
0
0
0
0
0
0
0
0
0
0
0
0
0
0
0
0
0
0
0
0
0
0
0
0
0
1
1
0
0
0
0
0
0
0
0
0
0
0
0
0
0
0
0
0
0
0
0
1
1
0
0
0
0
0
0
0
0
0
0
0
0
0
0
0
0
0
0
0
0
0
0
0
0
0
0
0
0
0
0
0
0
0
1
1
0
0
0
0
0
0
0
0
0
0
0
0
0
0
0
0
0
0
0
0
1
1
0
0
0
0
0
0
0
0
0
0
0
0
0
0
0
0
0
0
0
0
0
0
0
0
0
0
0
0
0
0
0
0
0
1
1
0
0
0
0
0
0
0
0
0
0
0
0
0
0
0
0
0
0
0
0
1
1
0
0
0
0
0
0
0
0
0
0
0
0
0
0
0
0
0
0
0
0
0
0
0
0
0
0
0
0
0
0
0
0
0
1
1
0
0
0
0
0
0
0
0
0
0
0
0
0
0
0
0
0
0
0
0
1
1
0
0
0
0
0
0
0
0
0
0
0
0
0
0
0
0
0
0
0
0
0
0
0
0
0
0
0
0
0
0
0
0
0
1
1
0
0
0
0
0
0
0
0
0
0
0
0
0
0
0
0
0
0
0
0
1
1
0
0
0
0
0
0
0
0
0
0
0
0
0
0
0
0
0
0
0
0
0
0
0
0
0
0
0
0
0
0
0
0
0
1
1
0
0
0
0
0
0
0
0
0
0
0
0
0
0
0
0
0
0
0
0
1
1
0
0
0
0
0
0
0
0
0
0
0
0
0
0
0
0
0
0
0
0
0
0
0
0
0
0
0
0
0
0
0
0
0
1
1
0
0
0
0
0
0
0
0
0
0
0
0
0
0
0
0
0
0
0
0
1
1
0
0
0
0
0
0
0
0
0
0
0
0
0
0
0
0
0
0
0
0
0
0
0
0
0
0
0
0
0
0
0
0
0
1
1
0
0
0
0
0
0
0
0
0
0
0
0
0
0
0
0
0
0
0
0
1
1
0
0
0
0
0
0
0
0
0
0
0
0
0
0
0
0
0
0
0
0
0
0
0
0
0
0
0
0
0
0
0
0
0
1
1
0
0
0
0
0
0
0
0
0
0
0
0
0
0
0
0
0
0
0
0
1
1
0
0
0
0
0
0
0
0
0
0
0
0
0
0
0
0
0
0
0
0
0
0
0
0
0
0
0
0
0
0
0
0
0
1
1
0
0
0
0
0
0
0
0
0
0
0
0
0
0
0
0
0
0
0
0
1
1
0
0
0
0
0
0
0
0
0
0
0
0
0
0
0
0
0
0
0
0
0
0
0
0
0
0
0
0
0
0
0
0
0
1
1
0
0
0
0
0
0
0
0
0
0
0
0
0
0
0
0
0
0
0
0
1
1
0
0
0
0
0
0
0
0
0
0
0
0
0
0
0
0
0
0
0
0
0
0
0
0
0
0
0
0
0
0
0
0
0
1
1
0
0
0
0
0
0
0
0
0
0
0
0
0
0
0
0
0
0
0
0
1
1
0
0
0
0
0
0
0
0
0
0
0
0
0
0
0
0
0
0
0
0
0
0
0
0
0
0
0
0
0
0
0
0
0
1
1
0
0
0
0
0
0
0
0
0
0
0
0
0
0
0
0
0
0
0
0
1
1
0
0
0
0
0
0
0
0
0
0
0
0
0
0
0
0
0
0
0
0
0
0
0
0
0
0
0
0
0
0
0
0
0
1
1
1
1
1
1
1
1
1
1
1
1
1
1
1
1
1
1
1
1
1
1
1
1
1
1
1
1
1
1
1
1
1
1
1
1
1
1
1
1
1
1
1
1
1
1
1
1
1
1
1
1
1
1
1
1
1
1
				</DataArray>
				<DataArray type="Float64" Name="h" NumberOfComponents="1" Format="ascii">
1.4999999245
1.4999996904
1.4999988933
1.4999961370
1.4999884078
1.4999696534
1.4999295793
1.4998532087
1.4997219897
1.4995167908
1.4992222878
1.4988314367
1.4983486460
1.4977906576
1.4971849728
1.4965666175
1.4959741134
1.4954455446
1.4950153383
1.4947116875
1.4945546304
1.4945546304
1.0001052639
1.0001638503
1.0001518223
1.0001302633
1.0001033541
1.0000756781
1.0000510016
1.0000315312
1.0000178141
1.0000091567
1.0000042607
1.0000017842
1.0000006679
1.0000002217
1.0000000647
1.0000000164
1.0000000035
1.0000000006
1.0000000001
1.0000000000
1.0000000000
1.0000000000
1.0000000000
1.0000000000
1.0000000000
1.0000000000
1.0000000000
1.0000000000
1.0000000000
1.0000000000
1.0000000000
1.0000000000
1.0000000000
1.0000000000
1.0000000000
1.4999996904
1.4999989419
1.4999968521
1.4999903783
1.4999740822
1.4999381096
1.4998673119
1.4997417286
1.4995390573
1.4992389756
1.4988282535
1.4983050189
1.4976809278
1.4969806660
1.4962391041
1.4954972635
1.4947979921
1.4941821462
1.4936857276
1.4933376956
1.4931583988
1.4945546304
1.0001638503
1.0002489043
1.0002320044
1.0002014250
1.0001626584
1.0001219229
1.0000846011
1.0000541691
1.0000318866
1.0000171852
1.0000084407
1.0000037586
1.0000015084
1.0000005419
1.0000001728
1.0000000485
1.0000000118
1.0000000025
1.0000000004
1.0000000001
1.0000000000
1.0000000000
1.0000000000
1.0000000000
1.0000000000
1.0000000000
1.0000000000
1.0000000000
1.0000000000
1.0000000000
1.0000000000
1.0000000000
1.0000000000
1.0000000000
1.0000000000
1.4999987209
1.4999963672
1.4999910347
1.4999762486
1.4999431061
1.4998772256
1.4997589773
1.4995654443
1.4992742017
1.4988681875
1.4983403015
1.4976962893
1.4969552783
1.4961479627
1.4953130930
1.4944934612
1.4937320249
1.4930687250
1.4925382430
1.4921682722
1.4919782384
1.4934557763
1.0003069147
1.0004458688
1.0004186940
1.0003689205
1.0003045497
1.0002350279
1.0001690870
1.0001130351
1.0000699580
1.0000399254
1.0000209196
1.0000100153
1.0000043579
1.0000017131
1.0000006041
1.0000001896
1.0000000524
1.0000000126
1.0000000026
1.0000000005
1.0000000001
1.0000000000
1.0000000000
1.0000000000
1.0000000000
1.0000000000
1.0000000000
1.0000000000
1.0000000000
1.0000000000
1.0000000000
1.0000000000
1.0000000000
1.0000000000
1.0000000000
1.4999949177
1.4999873834
1.4999729584
1.4999361649
1.4998611968
1.4997253104
1.4995015100
1.4991632210
1.4986900128
1.4980728040
1.4973169754
1.4964425360
1.4954818369
1.4944756968
1.4934690152
1.4925070135
1.4916322643
1.4908826694
1.4902903063
1.4898804838
1.4896709401
1.4912918180
1.0006698818
1.0009322959
1.0008817768
1.0007880569
1.0006643209
1.0005268954
1.0003919596
1.0002725057
1.0001763731
1.0001058335
1.0000586219
1.0000298355
1.0000138832
1.0000058742
1.0000022462
1.0000007708
1.0000002354
1.0000000634
1.0000000149
1.0000000030
1.0000000005
1.0000000001
1.0000000000
1.0000000000
1.0000000000
1.0000000000
1.0000000000
1.0000000000
1.0000000000
1.0000000000
1.0000000000
1.0000000000
1.0000000000
1.0000000000
1.0000000000
1.4999826795
1.4999615413
1.4999266691
1.4998432978
1.4996860508
1.4994219714
1.4990170990
1.4984444254
1.4976910207
1.4967622710
1.4956820717
1.4944892470
1.4932320744
1.4919625010
1.4907313106
1.4895851249
1.4885647633
1.4877047055
1.4870332551
1.4865724959
1.4863379961
1.4881318900
1.0014184936
1.0019017793
1.0018099848
1.0016377056
1.0014059602
1.0011420167
1.0008746876
1.0006292863
1.0004235271
1.0002655386
1.0001544263
1.0000829349
1.0000409421
1.0000184866
1.0000075932
1.0000028199
1.0000009402
1.0000002792
1.0000000731
1.0000000167
1.0000000033
1.0000000005
1.0000000001
1.0000000000
1.0000000000
1.0000000000
1.0000000000
1.0000000000
1.0000000000
1.0000000000
1.0000000000
1.0000000000
1.0000000000
1.0000000000
1.0000000000
1.4999485630
1.4998962557
1.4998211898
1.4996510324
1.4993506810
1.4988790168
1.4982002324
1.4972944887
1.4961646631
1.4948376077
1.4933600770
1.4917911167
1.4901940073
1.4886295471
1.4871516841
1.4858059015
1.4846292081
1.4836511784
1.4828954113
1.4823803015
1.4821191251
1.4840799945
1.0028221320
1.0036548190
1.0034987196
1.0032023984
1.0027964655
1.0023226868
1.0018281785
1.0013580340
1.0009479721
1.0006191505
1.0003767464
1.0002126626
1.0001108755
1.0000531491
1.0000233095
1.0000093027
1.0000033581
1.0000010888
1.0000003145
1.0000000802
1.0000000178
1.0000000034
1.0000000005
1.0000000001
1.0000000000
1.0000000000
1.0000000000
1.0000000000
1.0000000000
1.0000000000
1.0000000000
1.0000000000
1.0000000000
1.0000000000
1.0000000000
1.4998648208
1.4997492913
1.4996041683
1.4992894255
1.4987648113
1.4979887821
1.4969339421
1.4955984564
1.4940099690
1.4922220990
1.4903056232
1.4883375857
1.4863920778
1.4845339997
1.4828161746
1.4812796290
1.4799553101
1.4788665818
1.4780317777
1.4774655714
1.4771792123
1.4792709514
1.0052513993
1.0065795821
1.0063341798
1.0058627783
1.0052047543
1.0044172638
1.0035697178
1.0027347653
1.0019770274
1.0013425911
1.0008527409
1.0005044330
1.0002767655
1.0001402512
1.0000653503
1.0000278645
1.0000108143
1.0000037973
1.0000011981
1.0000003369
1.0000000836
1.0000000181
1.0000000034
1.0000000005
1.0000000001
1.0000000000
1.0000000000
1.0000000000
1.0000000000
1.0000000000
1.0000000000
1.0000000000
1.0000000000
1.0000000000
1.0000000000
1.4996816173
1.4994514813
1.4991973977
1.4986660402
1.4978227543
1.4966394292
1.4951112912
1.4932661320
1.4911632934
1.4888848383
1.4865228557
1.4841669778
1.4818957863
1.4797724105
1.4778438869
1.4761435614
1.4746944029
1.4735126914
1.4726113844
1.4720018363
1.4716939169
1.4738613807
1.0091307834
1.0110809283
1.0107269645
1.0100382283
1.0090573782
1.0078520485
1.0065122774
1.0051423853
1.0038468598
1.0027129682
1.0017955596
1.0011105495
1.0006393526
1.0003412778
1.0001682229
1.0000762451
1.0000316256
1.0000119420
1.0000040810
1.0000012535
1.0000003433
1.0000000830
1.0000000175
1.0000000032
1.0000000005
1.0000000001
1.0000000000
1.0000000000
1.0000000000
1.0000000000
1.0000000000
1.0000000000
1.0000000000
1.0000000000
1.0000000000
1.4993206544
1.4989033022
1.4984972865
1.4976729072
1.4964173040
1.4947339813
1.4926562879
1.4902513470
1.4876132363
1.4848499248
1.4820687929
1.4793647365
1.4768138633
1.4744718739
1.4723760003
1.4705494273
1.4690059014
1.4677542883
1.4668024984
1.4661593595
1.4658343722
1.4680152710
1.0148254637
1.0174469974
1.0169822565
1.0160648731
1.0147295839
1.0130413183
1.0110988174
1.0090320563
1.0069897356
1.0051164751
1.0035251541
1.0022760533
1.0013718309
1.0007690518
1.0003995517
1.0001916508
1.0000845212
1.0000341142
1.0000125370
1.0000041705
1.0000012473
1.0000003327
1.0000000784
1.0000000161
1.0000000029
1.0000000004
1.0000000001
1.0000000000
1.0000000000
1.0000000000
1.0000000000
1.0000000000
1.0000000000
1.0000000000
1.0000000000
1.4986741642
1.4979790789
1.4973824477
1.4961990426
1.4944560898
1.4922073843
1.4895379805
1.4865603225
1.4834021532
1.4801915772
1.4770435026
1.4740504556
1.4712797864
1.4687752566
1.4665614693
1.4646499661
1.4630447465
1.4617474110
1.4607614882
1.4600943898
1.4597566173
1.4618905337
1.0224738027
1.0256847169
1.0251340248
1.0240286490
1.0223804068
1.0202313720
1.0176652492
1.0148154146
1.0118623130
1.0090130123
1.0064627357
1.0043525439
1.0027424055
1.0016109976
1.0008795031
1.0004447786
1.0002076168
1.0000890958
1.0000349943
1.0000125163
1.0000040530
1.0000011803
1.0000003067
1.0000000704
1.0000000141
1.0000000024
1.0000000004
1.0000000000
1.0000000000
1.0000000000
1.0000000000
1.0000000000
1.0000000000
1.0000000000
1.0000000000
1.4976125480
1.4965404322
1.4957280888
1.4941453950
1.4918750710
1.4890358031
1.4857733844
1.4822475019
1.4786156855
1.4750191613
1.4715727528
1.4683600823
1.4654349825
1.4628262840
1.4605443833
1.4585885655
1.4569530757
1.4556326658
1.4546273245
1.4539444047
1.4535971812
1.4556299563
1.0318383081
1.0354132057
1.0348295816
1.0336334560
1.0318002912
1.0293294509
1.0262603105
1.0226921897
1.0188002947
1.0148323557
1.0110724022
1.0077783625
1.0051200077
1.0031471372
1.0018012896
1.0009574105
1.0004711729
1.0002139802
1.0000893364
1.0000341384
1.0000118809
1.0000037444
1.0000010616
1.0000002686
1.0000000601
1.0000000117
1.0000000020
1.0000000003
1.0000000000
1.0000000000
1.0000000000
1.0000000000
1.0000000000
1.0000000000
1.0000000000
1.4960006376
1.4944563459
1.4934235960
1.4914375783
1.4886445356
1.4852349889
1.4814185941
1.4774009093
1.4733645103
1.4694575645
1.4657889259
1.4624287538
1.4594144014
1.4567581683
1.4544555819
1.4524935384
1.4508566853
1.4495333464
1.4485208303
1.4478280140
1.4474732596
1.4493569609
1.0422904562
1.0459165066
1.0453696514
1.0442151244
1.0423856941
1.0398287694
1.0365187842
1.0324823854
1.0278342403
1.0228051992
1.0177332611
1.0130018738
1.0089425660
1.0057484278
1.0034443367
1.0019194843
1.0009926753
1.0004751493
1.0002098475
1.0000851964
1.0000316608
1.0000107175
1.0000032862
1.0000009067
1.0000002234
1.0000000487
1.0000000093
1.0000000015
1.0000000002
1.0000000000
1.0000000000
1.0000000000
1.0000000000
1.0000000000
1.0000000000
1.4937188474
1.4916243345
1.4903887357
1.4880337346
1.4847676625
1.4808507893
1.4765538197
1.4721246298
1.4677668229
1.4636315655
1.4598184401
1.4563818163
1.4533411953
1.4506916707
1.4484136087
1.4464813793
1.4448699928
1.4435615492
1.4425514747
1.4418520541
1.4414898697
1.4431800816
1.0529812472
1.0563582428
1.0559165020
1.0549331875
1.0532997320
1.0509183351
1.0476996387
1.0435796658
1.0385641563
1.0327890468
1.0265615689
1.0203392386
1.0146280498
1.0098363938
1.0061664466
1.0035974500
1.0019500383
1.0009803747
1.0004560746
1.0001957414
1.0000772274
1.0000278934
1.0000091786
1.0000027364
1.0000007343
1.0000001760
1.0000000373
1.0000000069
1.0000000011
1.0000000001
1.0000000000
1.0000000000
1.0000000000
1.0000000000
1.0000000000
1.4906827520
1.4879861684
1.4865840820
1.4839265325
1.4802740271
1.4759465422
1.4712680698
1.4665239215
1.4619360852
1.4576573961
1.4537774748
1.4503344960
1.4473297798
1.4447408253
1.4425323371
1.4406655912
1.4391054931
1.4378278364
1.4368269497
1.4361209004
1.4357488982
1.4372019888
1.0631127901
1.0660353010
1.0657535665
1.0650387272
1.0637442791
1.0617452712
1.0589119179
1.0551047458
1.0502082451
1.0442047477
1.0372650179
1.0298029010
1.0224297155
1.0157900466
1.0103593821
1.0063222571
1.0035857187
1.0018881563
1.0009218295
1.0004163767
1.0001735024
1.0000664671
1.0000233133
1.0000074513
1.0000021584
1.0000005630
1.0000001312
1.0000000271
1.0000000049
1.0000000008
1.0000000001
1.0000000000
1.0000000000
1.0000000000
1.0000000000
1.4868545932
1.4835333483
1.4820129817
1.4791397188
1.4752111078
1.4705916718
1.4656476068
1.4606958914
1.4559753435
1.4516411358
1.4477741216
1.4443970284
1.4414929549
1.4390210536
1.4369292063
1.4351643973
1.4336805542
1.4324469565
1.4314578110
1.4307401216
1.4303520480
1.4315251028
1.0721441262
1.0745212425
1.0744425218
1.0740570804
1.0731783988
1.0716732044
1.0694042662
1.0661965028
1.0618446854
1.0561730828
1.0491458470
1.0409951244
1.0322840989
1.0238108425
1.0163606502
1.0104461608
1.0061930823
1.0034086911
1.0017411406
1.0008244153
1.0003611232
1.0001459415
1.0000542281
1.0000184516
1.0000057226
1.0000016090
1.0000004075
1.0000000923
1.0000000185
1.0000000033
1.0000000005
1.0000000001
1.0000000000
1.0000000000
1.0000000000
1.4822450450
1.4783033722
1.4767171653
1.4737228516
1.4696385966
1.4648566315
1.4597727979
1.4547292781
1.4499803706
1.4456849609
1.4419169266
1.4386843541
1.4359515397
1.4336576655
1.4317318168
1.4301050328
1.4287193703
1.4275376786
1.4265555093
1.4258129950
1.4253962593
1.4262516162
1.0798227871
1.0816442321
1.0818124603
1.0817992173
1.0813663749
1.0803841839
1.0787360937
1.0762554421
1.0727033345
1.0677953037
1.0612924702
1.0531601800
1.0437388482
1.0337935733
1.0243344672
1.0162645392
1.0100773971
1.0057900538
1.0030868261
1.0015269481
1.0007001468
1.0002970213
1.0001162616
1.0000418468
1.0000137961
1.0000041468
1.0000011304
1.0000002777
1.0000000610
1.0000000119
1.0000000020
1.0000000003
1.0000000000
1.0000000000
1.0000000000
1.4769066524
1.4723699104
1.4707686104
1.4677459581
1.4636262143
1.4588137487
1.4537216870
1.4487103755
1.4440474006
1.4398958578
1.4363234626
1.4333232841
1.4308389536
1.4287870018
1.4270752507
1.4256173524
1.4243433510
1.4232106356
1.4222182785
1.4214247400
1.4209565496
1.4214711098
1.0860836129
1.0873726929
1.0878495235
1.0882579160
1.0882882993
1.0878185056
1.0867691525
1.0850140368
1.0823339887
1.0784081259
1.0728612758
1.0653996793
1.0560334694
1.0452805740
1.0341669263
1.0239173784
1.0154912850
1.0092853949
1.0051576324
1.0026578518
1.0012709241
1.0005634146
1.0002311103
1.0000874807
1.0000304560
1.0000097140
1.0000028256
1.0000007456
1.0000001774
1.0000000378
1.0000000071
1.0000000012
1.0000000002
1.0000000000
1.0000000000
1.4709224794
1.4658308473
1.4642603608
1.4612948667
1.4572538216
1.4525412102
1.4475764134
1.4427303965
1.4382800544
1.4343907903
1.4311224430
1.4284503928
1.4262940598
1.4245439359
1.4230845498
1.4218121061
1.4206462697
1.4195413735
1.4185027318
1.4176126438
1.4170543618
1.4172313142
1.0909233799
1.0917075231
1.0925889795
1.0934945075
1.0940207138
1.0940534790
1.0935566446
1.0924602556
1.0906000235
1.0876821740
1.0832841203
1.0769338312
1.0683132431
1.0575517619
1.0454383276
1.0333086710
1.0225589998
1.0141036621
1.0081526054
1.0043667311
1.0021704131
1.0010013099
1.0004283540
1.0001695836
1.0000619655
1.0000208285
1.0000064154
1.0000018027
1.0000004597
1.0000001058
1.0000000218
1.0000000040
1.0000000006
1.0000000001
1.0000000000
1.4643962805
1.4588000105
1.4573008651
1.4544697929
1.4506144204
1.4461293195
1.4414307999
1.4368922904
1.4327934664
1.4292965192
1.4264479921
1.4242000077
1.4224428240
1.4210379120
1.4198464653
1.4187500176
1.4176621756
1.4165381457
1.4153918321
1.4143333353
1.4136224799
1.4135008154
1.0943138749
1.0946176360
1.0960529668
1.0975702437
1.0986570153
1.0992090467
1.0992329317
1.0987182773
1.0975718475
1.0955678859
1.0923125833
1.0872608741
1.0798538431
1.0698127314
1.0575013917
1.0440851669
1.0312148918
1.0203536113
1.0122348759
1.0067993730
1.0035028593
1.0016754828
1.0007441540
1.0003065459
1.0001168861
1.0000411408
1.0000133227
1.0000039545
1.0000010711
1.0000002634
1.0000000585
1.0000000116
1.0000000021
1.0000000004
1.0000000001
1.4574462842
1.4514031772
1.4500115202
1.4473853556
1.4438165777
1.4396842135
1.4353934963
1.4313111667
1.4277100041
1.4247391329
1.4224222639
1.4206801589
1.4193688640
1.4183201753
1.4173757646
1.4164092856
1.4153354820
1.4141150715
1.4127705440
1.4114386538
1.4104770206
1.4101332407
1.0961501947
1.0959985857
1.0982209952
1.1005199232
1.1022808134
1.1034139793
1.1039634868
1.1039750128
1.1034308529
1.1021943761
1.0999518092
1.0961772869
1.0901903790
1.0813844155
1.0696350767
1.0556948654
1.0411848493
1.0279987133
1.0174923707
1.0100722104
1.0053653141
1.0026517520
1.0012176495
1.0005193877
1.0002055339
1.0000752937
1.0000254633
1.0000079243
1.0000022608
1.0000005887
1.0000001393
1.0000000297
1.0000000057
1.0000000011
1.0000000003
1.4502026777
1.4437772115
1.4425260190
1.4401701442
1.4369838041
1.4333260781
1.4295835326
1.4261054491
1.4231445128
1.4208226172
1.4191277520
1.4179404001
1.4170796621
1.4163516802
1.4155876932
1.4146643314
1.4135063788
1.4120834367
1.4104212295
1.4086711374
1.4073047644
1.4068432535
1.0961733134
1.0955919567
1.0989846946
1.1023330974
1.1049704483
1.1068220268
1.1079578715
1.1084758270
1.1084370186
1.1078062027
1.1063810453
1.1037215319
1.0991362587
1.0918169503
1.0812027816
1.0675042904
1.0520242779
1.0368409914
1.0239066170
1.0142461824
1.0078303361
1.0039866644
1.0018852383
1.0008288307
1.0003386188
1.0001283601
1.0000450444
1.0000145935
1.0000043510
1.0000011894
1.0000002968
1.0000000673
1.0000000138
1.0000000029
1.0000000010
1.4428094346
1.4360723498
1.4349917574
1.4329664483
1.4302518512
1.4271831684
1.4241200611
1.4213813572
1.4191830316
1.4176023735
1.4165776602
1.4159424629
1.4154815697
1.4149860579
1.4142911571
1.4132897705
1.4119247572
1.4101738513
1.4080516083
1.4056920909
1.4036742599
1.4032081585
1.0937563697
1.0927630755
1.0980293689
1.1029197649
1.1068257399
1.1096669414
1.1115276748
1.1125690264
1.1129487537
1.1127505523
1.1119067971
1.1101082216
1.1067375989
1.1009120444
1.0917520413
1.0789207644
1.0631954748
1.0465380931
1.0313368659
1.0193046034
1.0109283572
1.0057157145
1.0027733767
1.0012512173
1.0005251149
1.0002048299
1.0000741287
1.0000248336
1.0000076797
1.0000021853
1.0000005701
1.0000001358
1.0000000295
1.0000000068
1.0000000025
1.4354262015
1.4284530732
1.4275692942
1.4259270822
1.4237619518
1.4213807649
1.4191065684
1.4172123263
1.4158581900
1.4150585846
1.4146904683
1.4145398196
1.4143676351
1.4139676056
1.4131974313
1.4119798995
1.4102810126
1.4080797384
1.4053521896
1.4021478368
1.3990720245
1.3987021732
1.0873293291
1.0859184928
1.0946237956
1.1021416747
1.1081008689
1.1124029227
1.1151966213
1.1167782527
1.1174603166
1.1174824638
1.1169364629
1.1156737012
1.1132085832
1.1086865195
1.1010437345
1.0894794666
1.0741558445
1.0566474842
1.0395230977
1.0251390395
1.0146323806
1.0078418122
1.0038909914
1.0017939206
1.0007696927
1.0003072869
1.0001140105
1.0000392375
1.0000124958
1.0000036721
1.0000009927
1.0000002460
1.0000000560
1.0000000135
1.0000000052
1.4282279789
1.4210959180
1.4204289516
1.4192097419
1.4176522164
1.4160293108
1.4146159808
1.4136219922
1.4131317530
1.4130804843
1.4132776117
1.4134685647
1.4134085867
1.4129169263
1.4118952641
1.4103126852
1.4081681253
1.4054407093
1.4020379042
1.3978029576
1.3930508319
1.3928540354
1.0725672231
1.0706801241
1.0874732755
1.1002818350
1.1097005453
1.1160452917
1.1198831636
1.1218717615
1.1226012915
1.1225244628
1.1219143675
1.1207954715
1.1188413726
1.1152926759
1.1090173931
1.0988742407
1.0844272696
1.0666822945
1.0481056136
1.0315448968
1.0188468225
1.0103254769
1.0052226895
1.0024511172
1.0010702768
1.0004350958
1.0001645610
1.0000578188
1.0000188320
1.0000056719
1.0000015753
1.0000004023
1.0000000947
1.0000000239
1.0000000096
1.4214030597
1.4141856376
1.4137466527
1.4129723725
1.4120527689
1.4112201773
1.4106887489
1.4105870731
1.4109049139
1.4114851139
1.4120673717
1.4123653357
1.4121428652
1.4112583786
1.4096684984
1.4074039572
1.4045349943
1.4011331950
1.3972175157
1.3926408489
1.3869894871
1.3870261474
1.0353661760
1.0327849084
1.0757182787
1.1000298205
1.1145202433
1.1228242611
1.1271064368
1.1288271285
1.1289924197
1.1282873882
1.1271432727
1.1257270318
1.1238559643
1.1208871644
1.1156970621
1.1069252703
1.0936243699
1.0761595757
1.0566539496
1.0382259095
1.0234010640
1.0130774941
1.0067235838
1.0032006927
1.0014163266
1.0005834908
1.0002237682
1.0000797922
1.0000264070
1.0000080926
1.0000022907
1.0000005973
1.0000001440
1.0000000375
1.0000000155
1.4151458842
1.4079070907
1.4076967032
1.4073680660
1.4070847395
1.4070320332
1.4073517177
1.4080758936
1.4090850202
1.4101203758
1.4108487804
1.4109475908
1.4101683421
1.4083503275
1.4053798936
1.4011076056
1.3952226016
1.3870414944
1.3750925800
1.3561600055
1.3228084332
1.2575057794
1.1753243615
1.1794000387
1.1121484702
1.1156025414
1.1258924009
1.1327463401
1.1370722544
1.1391622095
1.1394580286
1.1384806354
1.1367223263
1.1345974154
1.1324152397
1.1303244020
1.1281967962
1.1254748199
1.1210752021
1.1135152081
1.1014537403
1.0846416941
1.0647084684
1.0448142325
1.0280533719
1.0159574910
1.0083177287
1.0040034955
1.0017886016
1.0007435280
1.0002877304
1.0001035703
1.0000346209
1.0000107244
1.0000030711
1.0000008110
1.0000001983
1.0000000525
1.0000000220
1.4096440590
1.4024327052
1.4024404640
1.4025365506
1.4028571292
1.4035374063
1.4046416087
1.4061005624
1.4076857241
1.4090464816
1.4097964935
1.4096037203
1.4082400615
1.4055716399
1.4014978593
1.3958625803
1.3883465239
1.3783175328
1.3645880165
1.3449568795
1.3152646632
1.2681333608
1.1723311533
1.1768261220
1.1418689356
1.1379650655
1.1412767321
1.1446604407
1.1468027052
1.1473681464
1.1465069361
1.1445761452
1.1419854491
1.1391227498
1.1363125881
1.1337578981
1.1314227778
1.1288637728
1.1250859207
1.1185765405
1.1077332279
1.0917919915
1.0718460385
1.0509175126
1.0325148400
1.0187844270
1.0099032288
1.0048063766
1.0021610812
1.0009032223
1.0003512639
1.0001270542
1.0000426808
1.0000132888
1.0000038258
1.0000010160
1.0000002499
1.0000000667
1.0000000282
1.4050610819
1.3979068827
1.3981103722
1.3985870999
1.3994470086
1.4007767072
1.4025655695
1.4046492640
1.4067025020
1.4083020165
1.4090320012
1.4085751064
1.4067464364
1.4034638764
1.3986746664
1.3922694404
1.3839971005
1.3733645880
1.3594997347
1.3409295219
1.3151887439
1.2784695949
1.2130029593
1.1975125785
1.1696435192
1.1591877503
1.1560692388
1.1552688633
1.1547485439
1.1536192175
1.1516395811
1.1489102345
1.1456916039
1.1422998759
1.1390422233
1.1361482740
1.1336491644
1.1311981700
1.1278932884
1.1222402471
1.1124792407
1.0974538254
1.0777626420
1.0561877889
1.0364933352
1.0213603684
1.0113647141
1.0055490131
1.0025047786
1.0010496178
1.0004089569
1.0001481297
1.0000498155
1.0000155237
1.0000044722
1.0000011882
1.0000002923
1.0000000780
1.0000000329
1.4015238841
1.3944359943
1.3948003275
1.3955895040
1.3968907693
1.3987484563
1.4010874175
1.4036634605
1.4060742999
1.4078451779
1.4085486525
1.4078930502
1.4057409036
1.4020623980
1.3968528869
1.3900498438
1.3814629247
1.3707022974
1.3570935951
1.3395551045
1.3163958325
1.2851164557
1.2360056606
1.2126336628
1.1878490269
1.1741620920
1.1671666516
1.1633909163
1.1608012076
1.1582916064
1.1553881906
1.1520084152
1.1482935943
1.1444959774
1.1409000859
1.1377469282
1.1351115512
1.1327187109
1.1297445808
1.1247303679
1.1158301067
1.1016136966
1.0822812014
1.0603549723
1.0397274042
1.0234938073
1.0125868917
1.0061712944
1.0027916433
1.0011707727
1.0004561256
1.0001650977
1.0000554547
1.0000172525
1.0000049599
1.0000013144
1.0000003224
1.0000000857
1.0000000360
1.3991210003
1.3920895960
1.3925684648
1.3935799030
1.3951943133
1.3974246550
1.4001483648
1.4030638639
1.4057158786
1.4075976582
1.4082798455
1.4074951236
1.4051441266
1.4012365644
1.3958026033
1.3888116276
1.3801109651
1.3693690275
1.3560149590
1.3391597606
1.3174779304
1.2890997573
1.2485818925
1.2222847054
1.1986725061
1.1834035460
1.1742790413
1.1687067770
1.1647934165
1.1613683829
1.1578396758
1.1540161138
1.1499627492
1.1458888961
1.1420625242
1.1387300736
1.1359936714
1.1336250899
1.1308558774
1.1262604208
1.1179509329
1.1043278977
1.0853171268
1.0632297998
1.0420065531
1.0250192793
1.0134672735
1.0066200406
1.0029976749
1.0012570721
1.0004893248
1.0001768568
1.0000592888
1.0000184011
1.0000052752
1.0000013934
1.0000003405
1.0000000900
1.0000000377
1.3979069862
1.3909077531
1.3914462054
1.3925731789
1.3943500713
1.3967730945
1.3996945604
1.4027829349
1.4055560595
1.4074920794
1.4081625925
1.4073146503
1.4048697171
1.4008583145
1.3953282971
1.3882644385
1.3795310168
1.3688212200
1.3556068541
1.3390773565
1.3180572558
1.2909506652
1.2541318751
1.2269183811
1.2036943098
1.1877722442
1.1777125707
1.1713089282
1.1667619086
1.1628885020
1.1590490590
1.1550031622
1.1507794543
1.1465661790
1.1426229461
1.1391985257
1.1364080739
1.1340466928
1.1313744926
1.1269851754
1.1189747904
1.1056636227