<VTKFile type="UnstructuredGrid" version="0.1">
	<UnstructuredGrid>
		<Piece NumberOfPoints="13548" NumberOfCells="3387">
			<CellData>
				<DataArray type="Int32" Name="ghost" NumberOfComponents="1" Format="ascii">
1
1
1
1
1
1
1
1
1
1
1
1
1
1
1
1
1
1
1
1
1
1
1
1
1
1
1
1
1
1
1
1
1
1
1
1
1
1
1
1
1
1
1
1
1
1
1
1
1
1
1
1
1
1
1
1
1
1
0
0
0
0
0
0
0
0
0
0
0
0
0
0
0
0
0
0
0
0
1
1
0
0
0
0
0
0
0
0
0
0
0
0
0
0
0
0
0
0
0
0
0
0
0
0
0
0
0
0
0
0
0
0
0
1
1
0
0
0
0
0
0
0
0
0
0
0
0
0
0
0
0
0
0
0
0
1
1
0
0
0
0
0
0
0
0
0
0
0
0
0
0
0
0
0
0
0
0
0
0
0
0
0
0
0
0
0
0
0
0
0
1
1
0
0
0
0
0
0
0
0
0
0
0
0
0
0
0
0
0
0
0
0
1
1
0
0
0
0
0
0
0
0
0
0
0
0
0
0
0
0
0
0
0
0
0
0
0
0
0
0
0
0
0
0
0
0
0
1
1
0
0
0
0
0
0
0
0
0
0
0
0
0
0
0
0
0
0
0
0
1
1
0
0
0
0
0
0
0
0
0
0
0
0
0
0
0
0
0
0
0
0
0
0
0
0
0
0
0
0
0
0
0
0
0
1
1
0
0
0
0
0
0
0
0
0
0
0
0
0
0
0
0
0
0
0
0
1
1
0
0
0
0
0
0
0
0
0
0
0
0
0
0
0
0
0
0
0
0
0
0
0
0
0
0
0
0
0
0
0
0
0
1
1
0
0
0
0
0
0
0
0
0
0
0
0
0
0
0
0
0
0
0
0
1
1
0
0
0
0
0
0
0
0
0
0
0
0
0
0
0
0
0
0
0
0
0
0
0
0
0
0
0
0
0
0
0
0
0
1
1
0
0
0
0
0
0
0
0
0
0
0
0
0
0
0
0
0
0
0
0
1
1
0
0
0
0
0
0
0
0
0
0
0
0
0
0
0
0
0
0
0
0
0
0
0
0
0
0
0
0
0
0
0
0
0
1
1
0
0
0
0
0
0
0
0
0
0
0
0
0
0
0
0
0
0
0
0
1
1
0
0
0
0
0
0
0
0
0
0
0
0
0
0
0
0
0
0
0
0
0
0
0
0
0
0
0
0
0
0
0
0
0
1
1
0
0
0
0
0
0
0
0
0
0
0
0
0
0
0
0
0
0
0
0
1
1
0
0
0
0
0
0
0
0
0
0
0
0
0
0
0
0
0
0
0
0
0
0
0
0
0
0
0
0
0
0
0
0
0
1
1
0
0
0
0
0
0
0
0
0
0
0
0
0
0
0
0
0
0
0
0
1
1
0
0
0
0
0
0
0
0
0
0
0
0
0
0
0
0
0
0
0
0
0
0
0
0
0
0
0
0
0
0
0
0
0
1
1
0
0
0
0
0
0
0
0
0
0
0
0
0
0
0
0
0
0
0
0
1
1
0
0
0
0
0
0
0
0
0
0
0
0
0
0
0
0
0
0
0
0
0
0
0
0
0
0
0
0
0
0
0
0
0
1
1
0
0
0
0
0
0
0
0
0
0
0
0
0
0
0
0
0
0
0
0
1
1
0
0
0
0
0
0
0
0
0
0
0
0
0
0
0
0
0
0
0
0
0
0
0
0
0
0
0
0
0
0
0
0
0
1
1
0
0
0
0
0
0
0
0
0
0
0
0
0
0
0
0
0
0
0
0
1
1
0
0
0
0
0
0
0
0
0
0
0
0
0
0
0
0
0
0
0
0
0
0
0
0
0
0
0
0
0
0
0
0
0
1
1
0
0
0
0
0
0
0
0
0
0
0
0
0
0
0
0
0
0
0
0
1
1
0
0
0
0
0
0
0
0
0
0
0
0
0
0
0
0
0
0
0
0
0
0
0
0
0
0
0
0
0
0
0
0
0
1
1
0
0
0
0
0
0
0
0
0
0
0
0
0
0
0
0
0
0
0
0
1
1
0
0
0
0
0
0
0
0
0
0
0
0
0
0
0
0
0
0
0
0
0
0
0
0
0
0
0
0
0
0
0
0
0
1
1
0
0
0
0
0
0
0
0
0
0
0
0
0
0
0
0
0
0
0
0
1
1
0
0
0
0
0
0
0
0
0
0
0
0
0
0
0
0
0
0
0
0
0
0
0
0
0
0
0
0
0
0
0
0
0
1
1
0
0
0
0
0
0
0
0
0
0
0
0
0
0
0
0
0
0
0
0
1
1
0
0
0
0
0
0
0
0
0
0
0
0
0
0
0
0
0
0
0
0
0
0
0
0
0
0
0
0
0
0
0
0
0
1
1
0
0
0
0
0
0
0
0
0
0
0
0
0
0
0
0
0
0
0
0
1
1
0
0
0
0
0
0
0
0
0
0
0
0
0
0
0
0
0
0
0
0
0
0
0
0
0
0
0
0
0
0
0
0
0
1
1
0
0
0
0
0
0
0
0
0
0
0
0
0
0
0
0
0
0
0
0
1
1
0
0
0
0
0
0
0
0
0
0
0
0
0
0
0
0
0
0
0
0
0
0
0
0
0
0
0
0
0
0
0
0
0
1
1
0
0
0
0
0
0
0
0
0
0
0
0
0
0
0
0
0
0
0
0
1
1
0
0
0
0
0
0
0
0
0
0
0
0
0
0
0
0
0
0
0
0
0
0
0
0
0
0
0
0
0
0
0
0
0
1
1
0
0
0
0
0
0
0
0
0
0
0
0
0
0
0
0
0
0
0
0
1
1
0
0
0
0
0
0
0
0
0
0
0
0
0
0
0
0
0
0
0
0
0
0
0
0
0
0
0
0
0
0
0
0
0
1
1
0
0
0
0
0
0
0
0
0
0
0
0
0
0
0
0
0
0
0
0
1
1
0
0
0
0
0
0
0
0
0
0
0
0
0
0
0
0
0
0
0
0
0
0
0
0
0
0
0
0
0
0
0
0
0
1
1
0
0
0
0
0
0
0
0
0
0
0
0
0
0
0
0
0
0
0
0
1
1
0
0
0
0
0
0
0
0
0
0
0
0
0
0
0
0
0
0
0
0
0
0
0
0
0
0
0
0
0
0
0
0
0
1
1
0
0
0
0
0
0
0
0
0
0
0
0
0
0
0
0
0
0
0
0
1
1
0
0
0
0
0
0
0
0
0
0
0
0
0
0
0
0
0
0
0
0
0
0
0
0
0
0
0
0
0
0
0
0
0
1
1
0
0
0
0
0
0
0
0
0
0
0
0
0
0
0
0
0
0
0
0
0
1
1
0
0
0
0
0
0
0
0
0
0
0
0
0
0
0
0
0
0
0
0
0
0
0
0
0
0
0
0
0
0
0
0
0
0
1
1
0
0
0
0
0
0
0
0
0
0
0
0
0
0
0
0
0
0
0
0
0
0
0
0
0
0
0
0
0
0
0
0
0
0
0
0
0
0
0
0
0
0
0
0
0
0
0
0
0
0
0
0
0
0
0
0
0
1
1
0
0
0
0
0
0
0
0
0
0
0
0
0
0
0
0
0
0
0
0
0
0
0
0
0
0
0
0
0
0
0
0
0
0
0
0
0
0
0
0
0
0
0
0
0
0
0
0
0
0
0
0
0
0
0
0
0
1
1
0
0
0
0
0
0
0
0
0
0
0
0
0
0
0
0
0
0
0
0
0
0
0
0
0
0
0
0
0
0
0
0
0
0
0
0
0
0
0
0
0
0
0
0
0
0
0
0
0
0
0
0
0
0
0
0
0
1
1
0
0
0
0
0
0
0
0
0
0
0
0
0
0
0
0
0
0
0
0
0
0
0
0
0
0
0
0
0
0
0
0
0
0
0
0
0
0
0
0
0
0
0
0
0
0
0
0
0
0
0
0
0
0
0
0
0
1
1
0
0
0
0
0
0
0
0
0
0
0
0
0
0
0
0
0
0
0
0
0
0
0
0
0
0
0
0
0
0
0
0
0
0
0
0
0
0
0
0
0
0
0
0
0
0
0
0
0
0
0
0
0
0
0
0
0
1
1
0
0
0
0
0
0
0
0
0
0
0
0
0
0
0
0
0
0
0
0
0
0
0
0
0
0
0
0
0
0
0
0
0
0
0
0
0
0
0
0
0
0
0
0
0
0
0
0
0
0
0
0
0
0
0
0
0
1
1
0
0
0
0
0
0
0
0
0
0
0
0
0
0
0
0
0
0
0
0
0
0
0
0
0
0
0
0
0
0
0
0
0
0
0
0
0
0
0
0
0
0
0
0
0
0
0
0
0
0
0
0
0
0
0
0
0
1
1
0
0
0
0
0
0
0
0
0
0
0
0
0
0
0
0
0
0
0
0
0
0
0
0
0
0
0
0
0
0
0
0
0
0
0
0
0
0
0
0
0
0
0
0
0
0
0
0
0
0
0
0
0
0
0
0
0
1
1
0
0
0
0
0
0
0
0
0
0
0
0
0
0
0
0
0
0
0
0
0
0
0
0
0
0
0
0
0
0
0
0
0
0
0
0
0
0
0
0
0
0
0
0
0
0
0
0
0
0
0
0
0
0
0
0
0
1
1
0
0
0
0
0
0
0
0
0
0
0
0
0
0
0
0
0
0
0
0
0
0
0
0
0
0
0
0
0
0
0
0
0
0
0
0
0
0
0
0
0
0
0
0
0
0
0
0
0
0
0
0
0
0
0
0
0
1
1
0
0
0
0
0
0
0
0
0
0
0
0
0
0
0
0
0
0
0
0
0
1
1
0
0
0
0
0
0
0
0
0
0
0
0
0
0
0
0
0
0
0
0
0
0
0
0
0
0
0
0
0
0
0
0
0
0
1
1
0
0
0
0
0
0
0
0
0
0
0
0
0
0
0
0
0
0
0
0
1
1
0
0
0
0
0
0
0
0
0
0
0
0
0
0
0
0
0
0
0
0
0
0
0
0
0
0
0
0
0
0
0
0
0
1
1
0
0
0
0
0
0
0
0
0
0
0
0
0
0
0
0
0
0
0
0
1
1
0
0
0
0
0
0
0
0
0
0
0
0
0
0
0
0
0
0
0
0
0
0
0
0
0
0
0
0
0
0
0
0
0
1
1
0
0
0
0
0
0
0
0
0
0
0
0
0
0
0
0
0
0
0
0
1
1
0
0
0
0
0
0
0
0
0
0
0
0
0
0
0
0
0
0
0
0
0
0
0
0
0
0
0
0
0
0
0
0
0
1
1
0
0
0
0
0
0
0
0
0
0
0
0
0
0
0
0
0
0
0
0
1
1
0
0
0
0
0
0
0
0
0
0
0
0
0
0
0
0
0
0
0
0
0
0
0
0
0
0
0
0
0
0
0
0
0
1
1
0
0
0
0
0
0
0
0
0
0
0
0
0
0
0
0
0
0
0
0
1
1
0
0
0
0
0
0
0
0
0
0
0
0
0
0
0
0
0
0
0
0
0
0
0
0
0
0
0
0
0
0
0
0
0
1
1
0
0
0
0
0
0
0
0
0
0
0
0
0
0
0
0
0
0
0
0
1
1
0
0
0
0
0
0
0
0
0
0
0
0
0
0
0
0
0
0
0
0
0
0
0
0
0
0
0
0
0
0
0
0
0
1
1
0
0
0
0
0
0
0
0
0
0
0
0
0
0
0
0
0
0
0
0
1
1
0
0
0
0
0
0
0
0
0
0
0
0
0
0
0
0
0
0
0
0
0
0
0
0
0
0
0
0
0
0
0
0
0
1
1
0
0
0
0
0
0
0
0
0
0
0
0
0
0
0
0
0
0
0
0
1
1
0
0
0
0
0
0
0
0
0
0
0
0
0
0
0
0
0
0
0
0
0
0
0
0
0
0
0
0
0
0
0
0
0
1
1
0
0
0
0
0
0
0
0
0
0
0
0
0
0
0
0
0
0
0
0
1
1
0
0
0
0
0
0
0
0
0
0
0
0
0
0
0
0
0
0
0
0
0
0
0
0
0
0
0
0
0
0
0
0
0
1
1
0
0
0
0
0
0
0
0
0
0
0
0
0
0
0
0
0
0
0
0
1
1
0
0
0
0
0
0
0
0
0
0
0
0
0
0
0
0
0
0
0
0
0
0
0
0
0
0
0
0
0
0
0
0
0
1
1
0
0
0
0
0
0
0
0
0
0
0
0
0
0
0
0
0
0
0
0
1
1
0
0
0
0
0
0
0
0
0
0
0
0
0
0
0
0
0
0
0
0
0
0
0
0
0
0
0
0
0
0
0
0
0
1
1
0
0
0
0
0
0
0
0
0
0
0
0
0
0
0
0
0
0
0
0
1
1
0
0
0
0
0
0
0
0
0
0
0
0
0
0
0
0
0
0
0
0
0
0
0
0
0
0
0
0
0
0
0
0
0
1
1
0
0
0
0
0
0
0
0
0
0
0
0
0
0
0
0
0
0
0
0
1
1
0
0
0
0
0
0
0
0
0
0
0
0
0
0
0
0
0
0
0
0
0
0
0
0
0
0
0
0
0
0
0
0
0
1
1
0
0
0
0
0
0
0
0
0
0
0
0
0
0
0
0
0
0
0
0
1
1
0
0
0
0
0
0
0
0
0
0
0
0
0
0
0
0
0
0
0
0
0
0
0
0
0
0
0
0
0
0
0
0
0
1
1
0
0
0
0
0
0
0
0
0
0
0
0
0
0
0
0
0
0
0
0
1
1
0
0
0
0
0
0
0
0
0
0
0
0
0
0
0
0
0
0
0
0
0
0
0
0
0
0
0
0
0
0
0
0
0
1
1
0
0
0
0
0
0
0
0
0
0
0
0
0
0
0
0
0
0
0
0
1
1
0
0
0
0
0
0
0
0
0
0
0
0
0
0
0
0
0
0
0
0
0
0
0
0
0
0
0
0
0
0
0
0
0
1
1
0
0
0
0
0
0
0
0
0
0
0
0
0
0
0
0
0
0
0
0
1
1
0
0
0
0
0
0
0
0
0
0
0
0
0
0
0
0
0
0
0
0
0
0
0
0
0
0
0
0
0
0
0
0
0
1
1
0
0
0
0
0
0
0
0
0
0
0
0
0
0
0
0
0
0
0
0
1
1
0
0
0
0
0
0
0
0
0
0
0
0
0
0
0
0
0
0
0
0
0
0
0
0
0
0
0
0
0
0
0
0
0
1
1
0
0
0
0
0
0
0
0
0
0
0
0
0
0
0
0
0
0
0
0
1
1
0
0
0
0
0
0
0
0
0
0
0
0
0
0
0
0
0
0
0
0
0
0
0
0
0
0
0
0
0
0
0
0
0
1
1
0
0
0
0
0
0
0
0
0
0
0
0
0
0
0
0
0
0
0
0
1
1
0
0
0
0
0
0
0
0
0
0
0
0
0
0
0
0
0
0
0
0
0
0
0
0
0
0
0
0
0
0
0
0
0
1
1
0
0
0
0
0
0
0
0
0
0
0
0
0
0
0
0
0
0
0
0
1
1
0
0
0
0
0
0
0
0
0
0
0
0
0
0
0
0
0
0
0
0
0
0
0
0
0
0
0
0
0
0
0
0
0
1
1
1
1
1
1
1
1
1
1
1
1
1
1
1
1
1
1
1
1
1
1
1
1
1
1
1
1
1
1
1
1
1
1
1
1
1
1
1
1
1
1
1
1
1
1
1
1
1
1
1
1
1
1
1
1
1
1
				</DataArray>
				<DataArray type="Float64" Name="h" NumberOfComponents="1" Format="ascii">
1.3770566053
1.3708750097
1.3714777411
1.3726523837
1.3743390395
1.3764510450
1.3788792314
1.3814985465
1.3841757744
1.3867790773
1.3891888761
1.3913079691
1.3930700618
1.3944450301
1.3954395465
1.3960928320
1.3964678617
1.3966404840
1.3966878374
1.3966773423
1.3966588345
1.3966588345
1.1154890255
1.1193422045
1.1190365097
1.1184115621
1.1174435982
1.1161010392
1.1143462132
1.1121359603
1.1094204718
1.1061435051
1.1022439576
1.0976588708
1.0923310263
1.0862206099
1.0793213944
1.0716818314
1.0634245925
1.0547585748
1.0459753571
1.0374211360
1.0294483910
1.0223588448
1.0163540090
1.0115118682
1.0077934737
1.0050717664
1.0031710960
1.0019038521
1.0010968003
1.0006059379
1.0003212191
1.0001645956
1.0000848770
1.0000519165
1.0000519165
1.3708750097
1.3648969629
1.3655434810
1.3668066434
1.3686281851
1.3709233537
1.3735844658
1.3764866348
1.3794945385
1.3824709866
1.3852871818
1.3878327944
1.3900251766
1.3918162368
1.3931952516
1.3941868909
1.3948442428
1.3952386156
1.3954473173
1.3955409379
1.3955732103
1.3966588345
1.1193422045
1.1229160130
1.1226394381
1.1220727671
1.1211924085
1.1199671787
1.1183600309
1.1163285367
1.1138233617
1.1107878389
1.1071586046
1.1028671865
1.0978457389
1.0920366900
1.0854071927
1.0779699406
1.0698053938
1.0610804130
1.0520551769
1.0430665938
1.0344875246
1.0266689508
1.0198800681
1.0142689546
1.0098542008
1.0065448488
1.0041787771
1.0025637844
1.0015106502
1.0008545256
1.0004645265
1.0002446993
1.0001302604
1.0000821321
1.0000519165
1.3710056401
1.3651386089
1.3657797514
1.3670324298
1.3688390000
1.3711158497
1.3737571022
1.3766403977
1.3796335648
1.3826028700
1.3854227522
1.3879852426
1.3902085265
1.3920433867
1.3934759676
1.3945262201
1.3952417556
1.3956886066
1.3959397976
1.3960630201
1.3961104144
1.3972238315
1.1175166878
1.1210357640
1.1207653898
1.1202108380
1.1193485452
1.1181483323
1.1165755675
1.1145919154
1.1121540426
1.1092133940
1.1057169171
1.1016083494
1.0968328153
1.0913440673
1.0851148611
1.0781521773
1.0705138024
1.0623239543
1.0537834122
1.0451646710
1.0367891293
1.0289863219
1.0220413494
1.0161489189
1.0113883412
1.0077254993
1.0050394803
1.0031603004
1.0019047552
1.0011033269
1.0006152172
1.0003333946
1.0001834093
1.0001192829
1.0000773947
1.3712685330
1.3656225650
1.3662522599
1.3674826784
1.3692575985
1.3714959069
1.3740955424
1.3769393249
1.3799013877
1.3828547741
1.3856801494
1.3882739899
1.3905559515
1.3924745522
1.3940098873
1.3951728707
1.3960006228
1.3965490023
1.3968826615
1.3970635037
1.3971403908
1.3983106733
1.1141199682
1.1175098639
1.1172543725
1.1167288675
1.1159095830
1.1147679753
1.1132736636
1.1113955561
1.1091008039
1.1063547415
1.1031215663
1.0993649473
1.0950506389
1.0901498783
1.0846435267
1.0785288908
1.0718277615
1.0645968583
1.0569411118
1.0490243910
1.0410732350
1.0333653156
1.0261953427
1.0198262882
1.0144411772
1.0101131367
1.0068062877
1.0044019349
1.0027360007
1.0016350076
1.0009416543
1.0005284577
1.0003023289
1.0002036745
1.0001360358
1.3716676709
1.3663500810
1.3669608987
1.3681547718
1.3698780661
1.3720539604
1.3745866088
1.3773668964
1.3802784052
1.3832040027
1.3860331053
1.3886682134
1.3910307473
1.3930658167
1.3947449533
1.3960664419
1.3970527281
1.3977452787
1.3981966475
1.3984601013
1.3985794027
1.3998373635
1.1096078384
1.1127682433
1.1125399984
1.1120674760
1.1113258860
1.1102881370
1.1089287613
1.1072252947
1.1051572102
1.1027056896
1.0998539138
1.0965866440
1.0928905710
1.0887538556
1.0841643989
1.0791089295
1.0735729830
1.0675452891
1.0610309031
1.0540722590
1.0467754400
1.0393302795
1.0320061564
1.0251161263
1.0189555322
1.0137372681
1.0095535951
1.0063760013
1.0040853381
1.0025155793
1.0014934510
1.0008655571
1.0005129500
1.0003563048
1.0002440087
1.3722063398
1.3673186099
1.3679012347
1.3690408136
1.3706880051
1.3727726990
1.3752082021
1.3778966406
1.3807341303
1.3836160042
1.3864423177
1.3891225231
1.3915796892
1.3937544056
1.3956076620
1.3971224408
1.3983033651
1.3991741507
1.3997720175
1.4001388683
1.4003114540
1.4016887158
1.1045440963
1.1073616680
1.1071760496
1.1067858844
1.1061635890
1.1052821191
1.1041199769
1.1026625298
1.1009004551
1.0988288720
1.0964468947
1.0937560725
1.0907588323
1.0874552853
1.0838376678
1.0798844439
1.0755547376
1.0707870794
1.0655085072
1.0596567371
1.0532166991
1.0462636296
1.0389921099
1.0317110760
1.0247933288
1.0185908711
1.0133541814
1.0091889084
1.0060609421
1.0038382005
1.0023433959
1.0013987237
1.0008556776
1.0006105389
1.0004274266
1.3728850625
1.3685180823
1.3690610366
1.3701246398
1.3716662155
1.3736255284
1.3759285737
1.3784921639
1.3812278839
1.3840456488
1.3868573125
1.3895795236
1.3921365050
1.3944633131
1.3965090163
1.3982395841
1.3996397358
1.4007129804
1.4014785452
1.4019644884
1.4021986861
1.4037254242
1.0994817564
1.1018560863
1.1017294142
1.1014520564
1.1009906795
1.1003155073
1.0994064736
1.0982540736
1.0968568108
1.0952192862
1.0933508508
1.0912630966
1.0889671526
1.0864692879
1.0837638736
1.0808254779
1.0776005844
1.0740020296
1.0699119888
1.0651978868
1.0597462496
1.0535136976
1.0465804957
1.0391837208
1.0317027369
1.0245848612
1.0182379483
1.0129365956
1.0087805116
1.0057143271
1.0035841125
1.0022000183
1.0013865096
1.0010137918
1.0007241394
1.3737001612
1.3699280731
1.3704178597
1.3713801781
1.3727820745
1.3745770740
1.3767079143
1.3791096829
1.3817120936
1.3844411643
1.3872209923
1.3899750780
1.3926280473
1.3951085897
1.3973530663
1.3993095932
1.4009418526
1.4022315304
1.4031778268
1.4037928837
1.4040941059
1.4057960191
1.0948542234
1.0967230283
1.0966703647
1.0965327990
1.0962670789
1.0958367633
1.0952195985
1.0944074782
1.0934024426
1.0922134776
1.0908543057
1.0893402889
1.0876853719
1.0858977499
1.0839730884
1.0818867338
1.0795848996
1.0769764995
1.0739302248
1.0702811693
1.0658537826
1.0605065930
1.0541939189
1.0470287231
1.0393150052
1.0315150969
1.0241497733
1.0176681243
1.0123463349
1.0082595552
1.0053215381
1.0033575565
1.0021774060
1.0016288525
1.0011853899
1.3746396830
1.3715131742
1.3719350096
1.3727684815
1.3739939226
1.3755829808
1.3774994360
1.3797001472
1.3821352064
1.3847476616
1.3874737207
1.3902430101
1.3929797367
1.3956056477
1.3980441365
1.4002253165
1.4020914421
1.4036014731
1.4047331956
1.4054813533
1.4058518130
1.4077471574
1.0909150193
1.0922662373
1.0923003499
1.0923238900
1.0922784186
1.0921161943
1.0918088365
1.0913459264
1.0907291541
1.0899676903
1.0890752384
1.0880666809
1.0869552310
1.0857488958
1.0844448429
1.0830228273
1.0814371571
1.0796075258
1.0774118285
1.0746841700
1.0712245728
1.0668291109
1.0613441660
1.0547405931
1.0471845507
1.0390616922
1.0309221998
1.0233508031
1.0168159125
1.0115742117
1.0076644258
1.0049710466
1.0033152058
1.0025342491
1.0018768314
1.3756813839
1.3732216206
1.3735608101
1.3742381264
1.3752508285
1.3765930145
1.3782535825
1.3802142479
1.3824472120
1.3849129952
1.3875594571
1.3903215325
1.3931223311
1.3958764048
1.3984943475
1.4008886023
1.4029801260
1.4047048223
1.4060183339
1.4068972848
1.4073357455
1.4094332775
1.0877332412
1.0886006827
1.0887326750
1.0889339865
1.0891247071
1.0892408899
1.0892444091
1.0891195835
1.0888650382
1.0884875186
1.0879982848
1.0874096874
1.0867327844
1.0859748505
1.0851351309
1.0841998368
1.0831355102
1.0818800720
1.0803334045
1.0783492547
1.0757334594
1.0722576226
1.0676966317
1.0618959621
1.0548600756
1.0468262153
1.0382755506
1.0298469838
1.0221729205
1.0157195886
1.0107090852
1.0071437016
1.0048980596
1.0038227517
1.0028781516
1.3767924959
1.3749873415
1.3752311657
1.3757286492
1.3764970299
1.3775564113
1.3789240522
1.3806088521
1.3826062934
1.3848945263
1.3874326042
1.3901601776
1.3929989289
1.3958563267
1.3986306593
1.4012173291
1.4035164526
1.4054409963
1.4069243806
1.4079252882
1.4084268131
1.4107251599
1.0852316205
1.0856793711
1.0859206265
1.0863151467
1.0867541835
1.0871526655
1.0874597546
1.0876525869
1.0877253172
1.0876811953
1.0875282866
1.0872759936
1.0869331594
1.0865065721
1.0859979922
1.0854006657
1.0846942612
1.0838369038
1.0827552541
1.0813331156
1.0794016811
1.0767391833
1.0730894296
1.0682109358
1.0619613435
1.0543981992
1.0458523324
1.0369147193
1.0283079121
1.0206943804
1.0145205680
1.0099702419
1.0070286631
1.0055972330
1.0042805950
1.3779296849
1.3767336130
1.3768733605
1.3771745672
1.3776761487
1.3784261834
1.3794720731
1.3808511652
1.3825828525
1.3846630319
1.3870618193
1.3897234939
1.3925684866
1.3954976841
1.3983978095
1.4011480174
1.4036282363
1.4057289646
1.4073619481
1.4084691058
1.4090247205
1.4115133022
1.0832442726
1.0833484275
1.0837131602
1.0843193715
1.0850207815
1.0857063542
1.0863102757
1.0868014986
1.0871693416
1.0874136042
1.0875395128
1.0875540693
1.0874645172
1.0872776481
1.0869978568
1.0866249547
1.0861506203
1.0855518074
1.0847815199
1.0837564286
1.0823427046
1.0803457929
1.0775124559
1.0735583222
1.0682339887
1.0614277591
1.0532785371
1.0442384927
1.0350191477
1.0264191518
1.0191141930
1.0135222515
1.0098043595
1.0079635698
1.0061819860
1.3790423434
1.3783806599
1.3784132874
1.3785119352
1.3787369043
1.3791639665
1.3798704944
1.3809222622
1.3823626946
1.3842057056
1.3864329016
1.3889937920
1.3918083312
1.3947717246
1.3977600746
1.4006371790
1.4032635513
1.4055079691
1.4072616249
1.4084519050
1.4090480890
1.4117092668
1.0815685827
1.0814026357
1.0819105051
1.0827538311
1.0837384558
1.0847226889
1.0856241084
1.0864031064
1.0870444041
1.0875450150
1.0879082733
1.0881398057
1.0882461449
1.0882345993
1.0881120613
1.0878838733
1.0875516298
1.0871080864
1.0865293291
1.0857629893
1.0847125072
1.0832211546
1.0810620431
1.0779461649
1.0735646920
1.0676755845
1.0602279950
1.0514807155
1.0420359181
1.0327346717
1.0244415475
1.0178324947
1.0133041606
1.0110200340
1.0086785981
1.3800778114
1.3798549543
1.3797838846
1.3796852887
1.3796382999
1.3797435639
1.3801060728
1.3808186040
1.3819482175
1.3835273180
1.3855500544
1.3879724976
1.3907155140
1.3936699253
1.3967023536
1.3996622185
1.4023914825
1.4047381529
1.4065744620
1.4078165428
1.4084344787
1.4112463557
1.0800001854
1.0796263480
1.0803050138
1.0814208498
1.0827195877
1.0840245844
1.0852357449
1.0863047846
1.0872122006
1.0879530567
1.0885299678
1.0889484266
1.0892152885
1.0893389358
1.0893285750
1.0891939193
1.0889441472
1.0885842808
1.0881090783
1.0874927942
1.0866738446
1.0855363895
1.0838928402
1.0814769626
1.0779634025
1.0730296728
1.0664697338
1.0583386699
1.0490607933
1.0394186824
1.0303869735
1.0228821770
1.0175745095
1.0148438830
1.0118541065
1.3809868587
1.3810973101
1.3809320761
1.3806525962
1.3803522662
1.3801514667
1.3801783978
1.3805500158
1.3813560084
1.3826478109
1.3844336484
1.3866781018
1.3893048813
1.3922020970
1.3952282399
1.3982194373
1.4010000417
1.4033983534
1.4052695353
1.4065227188
1.4071370876
1.4100763864
1.0783500765
1.0778158785
1.0787039427
1.0801401879
1.0817961458
1.0834568493
1.0850039989
1.0863803579
1.0875622219
1.0885433307
1.0893267468
1.0899192056
1.0903291149
1.0905667043
1.0906435425
1.0905728092
1.0903692092
1.0900466974
1.0896141808
1.0890673063
1.0883747524
1.0874597264
1.0861787150
1.0843045869
1.0815276719
1.0774922972
1.0718870794
1.0645892254
1.0558188430
1.0462192234
1.0367786376
1.0285959541
1.0226171081
1.0194772973
1.0157670234
1.3817293706
1.3820689754
1.3818238176
1.3813885014
1.3808648012
1.3803860627
1.3800976717
1.3801366591
1.3806135686
1.3815991665
1.3831174446
1.3851437994
1.3876071039
1.3903947441
1.3933586461
1.3963228603
1.3990951270
1.4014850764
1.4033327080
1.4045451749
1.4051222133
1.4081666252
1.0764442271
1.0757824101
1.0769335533
1.0787533436
1.0808238324
1.0828902379
1.0848159686
1.0865338077
1.0880149437
1.0892518404
1.0902490299
1.0910160447
1.0915644424
1.0919075419
1.0920598578
1.0920377270
1.0918599635
1.0915467616
1.0911171435
1.0905829525
1.0899374577
1.0891383119
1.0880853128
1.0865977743
1.0844023559
1.0811476645
1.0764675792
1.0701077363
1.0620963430
1.0528930949
1.0434110704
1.0348460494
1.0283809168
1.0249143468
1.0204377219
1.3822781713
1.3827537730
1.3824456020
1.3818846979
1.3811749697
1.3804553017
1.3798813222
1.3796050130
1.3797551033
1.3804213750
1.3816449954
1.3834144710
1.3856663038
1.3882893467
1.3911307117
1.3940037127
1.3967004714
1.3990127387
1.4007668044
1.4018731630
1.4023675429
1.4054971166
1.0741083300
1.0733380880
1.0748277210
1.0771133466
1.0796731152
1.0822142621
1.0845818408
1.0866958773
1.0885198217
1.0900439430
1.0912750802
1.0922274766
1.0929180962
1.0933653843
1.0935882451
1.0936067634
1.0934433728
1.0931227421
1.0926708220
1.0921110315
1.0914555092
1.0906904847
1.0897549713
1.0885157178
1.0867465612
1.0841262154
1.0802765609
1.0748634150
1.0677610335
1.0592394854
1.0500743015
1.0414661841
1.0347615653
1.0310926539
1.0258380649
1.3826205810
1.3831563983
1.3828026242
1.3821477920
1.3812922631
1.3803733839
1.3795499588
1.3789831824
1.3788163854
1.3791571214
1.3800644196
1.3815417653
1.3835355955
1.3859384386
1.3885944347
1.3913075573
1.3938551727
1.3960113693
1.3975889879
1.3985065106
1.3988559921
1.4020534124
1.0711385321
1.0702668135
1.0722040307
1.0750642006
1.0782126373
1.0813253899
1.0842277649
1.0868207752
1.0890547292
1.0909155392
1.0924132399
1.0935695389
1.0944102432
1.0949622131
1.0952514134
1.0953034527
1.0951450443
1.0948046899
1.0943131427
1.0937016645
1.0929960395
1.0922049077
1.0913006724
1.0901944623
1.0887108970
1.0865741666
1.0834258263
1.0788988892
1.0727625374
1.0651204573
1.0565816981
1.0482724303
1.0416096549
1.0378931398
1.0318869784
1.3827576772
1.3832978994
1.3829146142
1.3821956608
1.3812333987
1.3801577165
1.3791241533
1.3782972675
1.3778306662
1.3778473619
1.3784238796
1.3795797400
1.3812731231
1.3834022087
1.3858099205
1.3882921914
1.3906121507
1.3925253872
1.3938292117
1.3944521218
1.3945682069
1.3978179325
1.0672562767
1.0662787902
1.0688285929
1.0724124544
1.0762889550
1.0801155547
1.0836917384
1.0868870828
1.0896296229
1.0918978414
1.0937068529
1.0950904718
1.0960888547
1.0967424502
1.0970885862
1.0971615902
1.0969943906
1.0966198836
1.0960726445
1.0953890844
1.0946042114
1.0937432064
1.0928053716
1.0917408410
1.0904237448
1.0886309662
1.0860445905
1.0823022213
1.0771163472
1.0704637105
1.0627875035
1.0550836190
1.0487447601
1.0451474450
1.0384525477
1.3827013513
1.3832094404
1.3828101917
1.3820527630
1.3810185988
1.3798258468
1.3786215420
1.3775681851
1.3768249479
1.3765270240
1.3767668887
1.3775800775
1.3789375140
1.3807444865
1.3828441174
1.3850252493
1.3870366154
1.3886127526
1.3895292729
1.3897202982
1.3894715261
1.3927580330
1.0620433065
1.0609457258
1.0643718274
1.0688971277
1.0737127407
1.0784728060
1.0829334090
1.0869111791
1.0902996643
1.0930681922
1.0952422471
1.0968762005
1.0980334085
1.0987756755
1.0991579334
1.0992279010
1.0990278588
1.0985967500
1.0979730489
1.0971966469
1.0963082762
1.0953444203
1.0943247994
1.0932320491
1.0919855060
1.0904161450
1.0882584181
1.0851812091
1.0808814925
1.0752528599
1.0685930862
1.0617378095
1.0559731691
1.0526531639
1.0453618878
1.3824709718
1.3829266919
1.3825218319
1.3817460609
1.3806685242
1.3793931216
1.3780546872
1.3768091504
1.3758166333
1.3752206118
1.3751269223
1.3755859578
1.3765813911
1.3780262990
1.3797647742
1.3815788050
1.3832014041
1.3843409044
1.3847384601
1.3843159399
1.3834964608
1.3868021620
1.0548407657
1.0536011365
1.0583552800
1.0641717519
1.0702754039
1.0763201045
1.0819795367
1.0869881901
1.0911964009
1.0945706420
1.0971602355
1.0990551186
1.1003553018
1.1011546468
1.1015337147
1.1015593805
1.1012871585
1.1007643503
1.1000341146
1.0991389516
1.0981226683
1.0970285721
1.0958907345
1.0947174490
1.0934672537
1.0920227319
1.0901756779
1.0876432156
1.0841380720
1.0795106917
1.0739430804
1.0681020030
1.0631056435
1.0601940069
1.0524173471
1.3820898930
1.3824852958
1.3820817612
1.3813016528
1.3802017214
1.3788707441
1.3774292828
1.3760234316
1.3748102544
1.3739375154
1.3735211946
1.3736244948
1.3742429310
1.3752972197
1.3766323509
1.3780225783
1.3791820261
1.3797838463
1.3795118772
1.3782315503
1.3765000272
1.3798036211
1.0445527709
1.0431463828
1.0500801488
1.0578291148
1.0658431855
1.0737324275
1.0810291487
1.0873695278
1.0925759590
1.0966397985
1.0996624520
1.1017931777
1.1031866062
1.1039812564
1.1042918439
1.1042100200
1.1038080807
1.1031437685
1.1022657360
1.1012185344
1.1000469726
1.0987974130
1.0975128210
1.0962204782
1.0949113491
1.0935147291
1.0918798248
1.0897810075
1.0869679900
1.0832800473
1.0788139694
1.0740734150
1.0699702786
1.0675588409
1.0594140638
1.3815824621
1.3819178387
1.3815191355
1.3807422980
1.3796324951
1.3782637749
1.3767417977
1.3752009035
1.3737920638
1.3726637971
1.3719390094
1.3716914128
1.3719271917
1.3725743972
1.3734786361
1.3744048043
1.3750428549
1.3750164631
1.3739141048
1.3714510737
1.3682088409
1.3714853414
1.0290904213
1.0274978122
1.0385043726
1.0495645824
1.0606351853
1.0711974562
1.0806428061
1.0885765641
1.0948728969
1.0996139670
1.1029997877
1.1052691541
1.1066497863
1.1073354433
1.1074807839
1.1072052118
1.1065991437
1.1057312280
1.1046554299
1.1034174118
1.1020610584
1.1006325468
1.0991789646
1.0977404270
1.0963334520
1.0949278404
1.0934269737
1.0916654073
1.0894422512
1.0866083049
1.0832016084
1.0795763572
1.0764209211
1.0745577766
1.0661569042
1.3809744072
1.3812548368
1.3808611204
1.3800886510
1.3789722466
1.3775722935
1.3759798000
1.3743163560
1.3727245577
1.3713505590
1.3703210968
1.3697182081
1.3695581927
1.3697778820
1.3702265355
1.3706628532
1.3707523265
1.3700560224
1.3680131778
1.3640050834
1.3581771940
1.3614025355
1.0032124757
1.0014280438
1.0221153675
1.0398327440
1.0559214776
1.0701076669
1.0820198695
1.0915217994
1.0987249864
1.1039074107
1.1074203281
1.1096149057
1.1107993344
1.1112226320
1.1110765428
1.1105046039
1.1096118987
1.1084751335
1.1071513136
1.1056851952
1.1041175599
1.1024915281
1.1008542867
1.0992534336
1.0977246108
1.0962714688
1.0948463044
1.0933424305
1.0916136768
1.0895363744
1.0871101540
1.0845566445
1.0823406029
1.0810325679
1.0724735535
1.3802966901
1.3805294983
1.3801380665
1.3793652694
1.3782366963
1.3768000426
1.3751317909
1.3733394513
1.3715540669
1.3699144206
1.3685447458
1.3675285207
1.3668859050
1.3665588505
1.3664024748
1.3661836203
1.3655810477
1.3641692731
1.3613506727
1.3561552175
1.3469851443
1.3501602851
0.9491348713
0.9471526446
0.9995993008
1.0319136853
1.0554914610
1.0735159168
1.0872733469
1.0975179694
1.1048592719
1.1098557873
1.1130166038
1.1147829855
1.1155152020
1.1154919844
1.1149220804
1.1139583600
1.1127100777
1.1112548602
1.1096480554
1.1079304031
1.1061372643
1.1043063922
1.1024820660
1.1007151849
1.0990550356
1.0975327343
1.0961432412
1.0948342896
1.0935144558
1.0920924575
1.0905437456
1.0889749774
1.0876400181
1.0868597186
1.0782211730
1.3795909312
1.3797840897
1.3793910276
1.3786106443
1.3774601794
1.3759752903
1.3742175824
1.3722781730
1.3702711240
1.3683178643
1.3665234797
1.3649456734
1.3635631276
1.3622448648
1.3607123831
1.3584840953
1.3547700435
1.3482345873
1.3364368874
1.3143949715
1.2705265342
1.1744780528
1.0447386983
1.0705195734
1.0270415333
1.0342168125
1.0519992054
1.0666122919
1.0798356354
1.0913871745
1.1009233792
1.1083268523
1.1136955041
1.1172715181
1.1193645064
1.1202919831
1.1203391768
1.1197396731
1.1186755094
1.1172834886
1.1156623867
1.1138824651
1.1119929522
1.1100283669
1.1080175875
1.1059921787
1.1039921587
1.1020692057
1.1002821965
1.0986841679
1.0973062880
1.0961446162
1.0951588082
1.0942914748
1.0935031049
1.0928026447
1.0922546916
1.0919496315
1.0832888821
1.3789113486
1.3790726692
1.3786754862
1.3778833055
1.3767064258
1.3751702691
1.3733234213
1.3712422054
1.3690249577
1.3667771229
1.3645876096
1.3624961433
1.3604590409
1.3583158877
1.3557492610
1.3522320510
1.3469415593
1.3385859048
1.3250463957
1.3025852300
1.2639867194
1.1953112743
1.0403198648
1.0667139670
1.0486762375
1.0533412729
1.0659097749
1.0785609839
1.0903423387
1.1005972366
1.1089810088
1.1153983181
1.1199396105
1.1228209580
1.1243207351
1.1247300643
1.1243160468
1.1233012497
1.1218619142
1.1201318808
1.1182079000
1.1161584907
1.1140307540
1.1118560709
1.1096592570
1.1074673998
1.1053169765
1.1032597314
1.1013615930
1.0996930015
1.0983150795
1.0972651236
1.0965477524
1.0961372792
1.0959848573
1.0960184527
1.0961407309
1.0962421633
1.0875960091
1.3783132334
1.3784500621
1.3780485011
1.3772449250
1.3760444683
1.3744648776
1.3725449291
1.3703498822
1.3679666587
1.3654900237
1.3630000141
1.3605295952
1.3580308358
1.3553431661
1.3521565113
1.3479682273
1.3420208757
1.3331824215
1.3197221352
1.2988690717
1.2659233263
1.2139578428
1.1118709745
1.1021114916
1.0821571892
1.0785875227
1.0837023753
1.0918332055
1.1006849142
1.1089279990
1.1158632551
1.1212081625
1.1249447496
1.1272076827
1.1282150435
1.1282152542
1.1274477527
1.1261187983
1.1243961778
1.1224097484
1.1202542428
1.1179970085
1.1156839888
1.1133447398
1.1110014877
1.1086782171
1.1064087408
1.1042446658
1.1022571081
1.1005299542
1.0991481394
1.0981824443
1.0976747120
1.0976263591
1.0979825354
1.0986065684
1.0992698400
1.0996999857
1.0910872243
1.3778388177
1.3779579337
1.3775531312
1.3767413012
1.3755241165
1.3739141629
1.3719436352
1.3696704969
1.3671744532
1.3645441999
1.3618560827
1.3591425695
1.3563594806
1.3533562811
1.3498425532
1.3453524148
1.3391984402
1.3303850116
1.3174596070
1.2982502002
1.2694013301
1.2267229855
1.1535067402
1.1283279482
1.1065455925
1.0979909518
1.0981603132
1.1027526930
1.1091292041
1.1156257657
1.1213063126
1.1257289662
1.1287821888
1.1305312751
1.1311406127
1.1308196809
1.1297817913
1.1282171693
1.1262847796
1.1241099538
1.1217849919
1.1193758378
1.1169273298
1.1144676352
1.1120171379
1.1095976087
1.1072408845
1.1049983373
1.1029447069
1.1011736768
1.0997879132
1.0988835062
1.0985307754
1.0987522091
1.0994890038
1.1005560041
1.1016256053
1.1023027243
1.0937275529
1.3775134582
1.3776210428
1.3772143717
1.3763977451
1.3751707695
1.3735429436
1.3715425390
1.3692232415
1.3666606919
1.3639405268
1.3611379901
1.3582871145
1.3553488293
1.3521827143
1.3485156327
1.3439106333
1.3377300070
1.3290665091
1.3166337678
1.2985929229
1.2722924590
1.2347686412
1.1767776626
1.1453982220
1.1221471896
1.1106719077
1.1078647838
1.1101579725
1.1148610331
1.1201570072
1.1249714604
1.1287609396
1.1313448684
1.1327430993
1.1330828224
1.1325462402
1.1313281501
1.1296073468
1.1275364885
1.1252376616
1.1228014075
1.1202926328
1.1177553746
1.1152168572
1.1126962559
1.1102138911
1.1078002740
1.1055065466
1.1034097296
1.1016098902
1.1002214321
1.0993573712
1.0991072076
1.0995077253
1.1004976293
1.1018594027
1.1031993758
1.1040407726
1.0954965531
1.3773488460
1.3774504898
1.3770428766
1.3762238609
1.3749920666
1.3733555276
1.3713406632
1.3689991681
1.3664048475
1.3636420770
1.3607859183
1.3578716897
1.3548635383
1.3516269134
1.3478982022
1.3432556378
1.3370863279
1.3285250697
1.3163612084
1.2989026347
1.2738018004
1.2385903037
1.1871626560
1.1536840462
1.1296792393
1.1168589798
1.1126628062
1.1138417899
1.1177164218
1.1224123741
1.1267929709
1.1302664100
1.1326162139
1.1338399537
1.1340460753
1.1334029509
1.1320959575
1.1302980936
1.1281588614
1.1257987620
1.1233074984
1.1207494856