<VTKFile type="UnstructuredGrid" version="0.1">
	<UnstructuredGrid>
		<Piece NumberOfPoints="13548" NumberOfCells="3387">
			<CellData>
				<DataArray type="Int32" Name="ghost" NumberOfComponents="1" Format="ascii">
1
1
1
1
1
1
1
1
1
1
1
1
1
1
1
1
1
1
1
1
1
1
1
1
1
1
1
1
1
1
1
1
1
1
1
1
1
1
1
1
1
1
1
1
1
1
1
1
1
1
1
1
1
1
1
1
1
1
0
0
0
0
0
0
0
0
0
0
0
0
0
0
0
0
0
0
0
0
1
1
0
0
0
0
0
0
0
0
0
0
0
0
0
0
0
0
0
0
0
0
0
0
0
0
0
0
0
0
0
0
0
0
0
1
1
0
0
0
0
0
0
0
0
0
0
0
0
0
0
0
0
0
0
0
0
1
1
0
0
0
0
0
0
0
0
0
0
0
0
0
0
0
0
0
0
0
0
0
0
0
0
0
0
0
0
0
0
0
0
0
1
1
0
0
0
0
0
0
0
0
0
0
0
0
0
0
0
0
0
0
0
0
1
1
0
0
0
0
0
0
0
0
0
0
0
0
0
0
0
0
0
0
0
0
0
0
0
0
0
0
0
0
0
0
0
0
0
1
1
0
0
0
0
0
0
0
0
0
0
0
0
0
0
0
0
0
0
0
0
1
1
0
0
0
0
0
0
0
0
0
0
0
0
0
0
0
0
0
0
0
0
0
0
0
0
0
0
0
0
0
0
0
0
0
1
1
0
0
0
0
0
0
0
0
0
0
0
0
0
0
0
0
0
0
0
0
1
1
0
0
0
0
0
0
0
0
0
0
0
0
0
0
0
0
0
0
0
0
0
0
0
0
0
0
0
0
0
0
0
0
0
1
1
0
0
0
0
0
0
0
0
0
0
0
0
0
0
0
0
0
0
0
0
1
1
0
0
0
0
0
0
0
0
0
0
0
0
0
0
0
0
0
0
0
0
0
0
0
0
0
0
0
0
0
0
0
0
0
1
1
0
0
0
0
0
0
0
0
0
0
0
0
0
0
0
0
0
0
0
0
1
1
0
0
0
0
0
0
0
0
0
0
0
0
0
0
0
0
0
0
0
0
0
0
0
0
0
0
0
0
0
0
0
0
0
1
1
0
0
0
0
0
0
0
0
0
0
0
0
0
0
0
0
0
0
0
0
1
1
0
0
0
0
0
0
0
0
0
0
0
0
0
0
0
0
0
0
0
0
0
0
0
0
0
0
0
0
0
0
0
0
0
1
1
0
0
0
0
0
0
0
0
0
0
0
0
0
0
0
0
0
0
0
0
1
1
0
0
0
0
0
0
0
0
0
0
0
0
0
0
0
0
0
0
0
0
0
0
0
0
0
0
0
0
0
0
0
0
0
1
1
0
0
0
0
0
0
0
0
0
0
0
0
0
0
0
0
0
0
0
0
1
1
0
0
0
0
0
0
0
0
0
0
0
0
0
0
0
0
0
0
0
0
0
0
0
0
0
0
0
0
0
0
0
0
0
1
1
0
0
0
0
0
0
0
0
0
0
0
0
0
0
0
0
0
0
0
0
1
1
0
0
0
0
0
0
0
0
0
0
0
0
0
0
0
0
0
0
0
0
0
0
0
0
0
0
0
0
0
0
0
0
0
1
1
0
0
0
0
0
0
0
0
0
0
0
0
0
0
0
0
0
0
0
0
1
1
0
0
0
0
0
0
0
0
0
0
0
0
0
0
0
0
0
0
0
0
0
0
0
0
0
0
0
0
0
0
0
0
0
1
1
0
0
0
0
0
0
0
0
0
0
0
0
0
0
0
0
0
0
0
0
1
1
0
0
0
0
0
0
0
0
0
0
0
0
0
0
0
0
0
0
0
0
0
0
0
0
0
0
0
0
0
0
0
0
0
1
1
0
0
0
0
0
0
0
0
0
0
0
0
0
0
0
0
0
0
0
0
1
1
0
0
0
0
0
0
0
0
0
0
0
0
0
0
0
0
0
0
0
0
0
0
0
0
0
0
0
0
0
0
0
0
0
1
1
0
0
0
0
0
0
0
0
0
0
0
0
0
0
0
0
0
0
0
0
1
1
0
0
0
0
0
0
0
0
0
0
0
0
0
0
0
0
0
0
0
0
0
0
0
0
0
0
0
0
0
0
0
0
0
1
1
0
0
0
0
0
0
0
0
0
0
0
0
0
0
0
0
0
0
0
0
1
1
0
0
0
0
0
0
0
0
0
0
0
0
0
0
0
0
0
0
0
0
0
0
0
0
0
0
0
0
0
0
0
0
0
1
1
0
0
0
0
0
0
0
0
0
0
0
0
0
0
0
0
0
0
0
0
1
1
0
0
0
0
0
0
0
0
0
0
0
0
0
0
0
0
0
0
0
0
0
0
0
0
0
0
0
0
0
0
0
0
0
1
1
0
0
0
0
0
0
0
0
0
0
0
0
0
0
0
0
0
0
0
0
1
1
0
0
0
0
0
0
0
0
0
0
0
0
0
0
0
0
0
0
0
0
0
0
0
0
0
0
0
0
0
0
0
0
0
1
1
0
0
0
0
0
0
0
0
0
0
0
0
0
0
0
0
0
0
0
0
1
1
0
0
0
0
0
0
0
0
0
0
0
0
0
0
0
0
0
0
0
0
0
0
0
0
0
0
0
0
0
0
0
0
0
1
1
0
0
0
0
0
0
0
0
0
0
0
0
0
0
0
0
0
0
0
0
1
1
0
0
0
0
0
0
0
0
0
0
0
0
0
0
0
0
0
0
0
0
0
0
0
0
0
0
0
0
0
0
0
0
0
1
1
0
0
0
0
0
0
0
0
0
0
0
0
0
0
0
0
0
0
0
0
1
1
0
0
0
0
0
0
0
0
0
0
0
0
0
0
0
0
0
0
0
0
0
0
0
0
0
0
0
0
0
0
0
0
0
1
1
0
0
0
0
0
0
0
0
0
0
0
0
0
0
0
0
0
0
0
0
1
1
0
0
0
0
0
0
0
0
0
0
0
0
0
0
0
0
0
0
0
0
0
0
0
0
0
0
0
0
0
0
0
0
0
1
1
0
0
0
0
0
0
0
0
0
0
0
0
0
0
0
0
0
0
0
0
1
1
0
0
0
0
0
0
0
0
0
0
0
0
0
0
0
0
0
0
0
0
0
0
0
0
0
0
0
0
0
0
0
0
0
1
1
0
0
0
0
0
0
0
0
0
0
0
0
0
0
0
0
0
0
0
0
1
1
0
0
0
0
0
0
0
0
0
0
0
0
0
0
0
0
0
0
0
0
0
0
0
0
0
0
0
0
0
0
0
0
0
1
1
0
0
0
0
0
0
0
0
0
0
0
0
0
0
0
0
0
0
0
0
0
1
1
0
0
0
0
0
0
0
0
0
0
0
0
0
0
0
0
0
0
0
0
0
0
0
0
0
0
0
0
0
0
0
0
0
0
1
1
0
0
0
0
0
0
0
0
0
0
0
0
0
0
0
0
0
0
0
0
0
0
0
0
0
0
0
0
0
0
0
0
0
0
0
0
0
0
0
0
0
0
0
0
0
0
0
0
0
0
0
0
0
0
0
0
0
1
1
0
0
0
0
0
0
0
0
0
0
0
0
0
0
0
0
0
0
0
0
0
0
0
0
0
0
0
0
0
0
0
0
0
0
0
0
0
0
0
0
0
0
0
0
0
0
0
0
0
0
0
0
0
0
0
0
0
1
1
0
0
0
0
0
0
0
0
0
0
0
0
0
0
0
0
0
0
0
0
0
0
0
0
0
0
0
0
0
0
0
0
0
0
0
0
0
0
0
0
0
0
0
0
0
0
0
0
0
0
0
0
0
0
0
0
0
1
1
0
0
0
0
0
0
0
0
0
0
0
0
0
0
0
0
0
0
0
0
0
0
0
0
0
0
0
0
0
0
0
0
0
0
0
0
0
0
0
0
0
0
0
0
0
0
0
0
0
0
0
0
0
0
0
0
0
1
1
0
0
0
0
0
0
0
0
0
0
0
0
0
0
0
0
0
0
0
0
0
0
0
0
0
0
0
0
0
0
0
0
0
0
0
0
0
0
0
0
0
0
0
0
0
0
0
0
0
0
0
0
0
0
0
0
0
1
1
0
0
0
0
0
0
0
0
0
0
0
0
0
0
0
0
0
0
0
0
0
0
0
0
0
0
0
0
0
0
0
0
0
0
0
0
0
0
0
0
0
0
0
0
0
0
0
0
0
0
0
0
0
0
0
0
0
1
1
0
0
0
0
0
0
0
0
0
0
0
0
0
0
0
0
0
0
0
0
0
0
0
0
0
0
0
0
0
0
0
0
0
0
0
0
0
0
0
0
0
0
0
0
0
0
0
0
0
0
0
0
0
0
0
0
0
1
1
0
0
0
0
0
0
0
0
0
0
0
0
0
0
0
0
0
0
0
0
0
0
0
0
0
0
0
0
0
0
0
0
0
0
0
0
0
0
0
0
0
0
0
0
0
0
0
0
0
0
0
0
0
0
0
0
0
1
1
0
0
0
0
0
0
0
0
0
0
0
0
0
0
0
0
0
0
0
0
0
0
0
0
0
0
0
0
0
0
0
0
0
0
0
0
0
0
0
0
0
0
0
0
0
0
0
0
0
0
0
0
0
0
0
0
0
1
1
0
0
0
0
0
0
0
0
0
0
0
0
0
0
0
0
0
0
0
0
0
0
0
0
0
0
0
0
0
0
0
0
0
0
0
0
0
0
0
0
0
0
0
0
0
0
0
0
0
0
0
0
0
0
0
0
0
1
1
0
0
0
0
0
0
0
0
0
0
0
0
0
0
0
0
0
0
0
0
0
1
1
0
0
0
0
0
0
0
0
0
0
0
0
0
0
0
0
0
0
0
0
0
0
0
0
0
0
0
0
0
0
0
0
0
0
1
1
0
0
0
0
0
0
0
0
0
0
0
0
0
0
0
0
0
0
0
0
1
1
0
0
0
0
0
0
0
0
0
0
0
0
0
0
0
0
0
0
0
0
0
0
0
0
0
0
0
0
0
0
0
0
0
1
1
0
0
0
0
0
0
0
0
0
0
0
0
0
0
0
0
0
0
0
0
1
1
0
0
0
0
0
0
0
0
0
0
0
0
0
0
0
0
0
0
0
0
0
0
0
0
0
0
0
0
0
0
0
0
0
1
1
0
0
0
0
0
0
0
0
0
0
0
0
0
0
0
0
0
0
0
0
1
1
0
0
0
0
0
0
0
0
0
0
0
0
0
0
0
0
0
0
0
0
0
0
0
0
0
0
0
0
0
0
0
0
0
1
1
0
0
0
0
0
0
0
0
0
0
0
0
0
0
0
0
0
0
0
0
1
1
0
0
0
0
0
0
0
0
0
0
0
0
0
0
0
0
0
0
0
0
0
0
0
0
0
0
0
0
0
0
0
0
0
1
1
0
0
0
0
0
0
0
0
0
0
0
0
0
0
0
0
0
0
0
0
1
1
0
0
0
0
0
0
0
0
0
0
0
0
0
0
0
0
0
0
0
0
0
0
0
0
0
0
0
0
0
0
0
0
0
1
1
0
0
0
0
0
0
0
0
0
0
0
0
0
0
0
0
0
0
0
0
1
1
0
0
0
0
0
0
0
0
0
0
0
0
0
0
0
0
0
0
0
0
0
0
0
0
0
0
0
0
0
0
0
0
0
1
1
0
0
0
0
0
0
0
0
0
0
0
0
0
0
0
0
0
0
0
0
1
1
0
0
0
0
0
0
0
0
0
0
0
0
0
0
0
0
0
0
0
0
0
0
0
0
0
0
0
0
0
0
0
0
0
1
1
0
0
0
0
0
0
0
0
0
0
0
0
0
0
0
0
0
0
0
0
1
1
0
0
0
0
0
0
0
0
0
0
0
0
0
0
0
0
0
0
0
0
0
0
0
0
0
0
0
0
0
0
0
0
0
1
1
0
0
0
0
0
0
0
0
0
0
0
0
0
0
0
0
0
0
0
0
1
1
0
0
0
0
0
0
0
0
0
0
0
0
0
0
0
0
0
0
0
0
0
0
0
0
0
0
0
0
0
0
0
0
0
1
1
0
0
0
0
0
0
0
0
0
0
0
0
0
0
0
0
0
0
0
0
1
1
0
0
0
0
0
0
0
0
0
0
0
0
0
0
0
0
0
0
0
0
0
0
0
0
0
0
0
0
0
0
0
0
0
1
1
0
0
0
0
0
0
0
0
0
0
0
0
0
0
0
0
0
0
0
0
1
1
0
0
0
0
0
0
0
0
0
0
0
0
0
0
0
0
0
0
0
0
0
0
0
0
0
0
0
0
0
0
0
0
0
1
1
0
0
0
0
0
0
0
0
0
0
0
0
0
0
0
0
0
0
0
0
1
1
0
0
0
0
0
0
0
0
0
0
0
0
0
0
0
0
0
0
0
0
0
0
0
0
0
0
0
0
0
0
0
0
0
1
1
0
0
0
0
0
0
0
0
0
0
0
0
0
0
0
0
0
0
0
0
1
1
0
0
0
0
0
0
0
0
0
0
0
0
0
0
0
0
0
0
0
0
0
0
0
0
0
0
0
0
0
0
0
0
0
1
1
0
0
0
0
0
0
0
0
0
0
0
0
0
0
0
0
0
0
0
0
1
1
0
0
0
0
0
0
0
0
0
0
0
0
0
0
0
0
0
0
0
0
0
0
0
0
0
0
0
0
0
0
0
0
0
1
1
0
0
0
0
0
0
0
0
0
0
0
0
0
0
0
0
0
0
0
0
1
1
0
0
0
0
0
0
0
0
0
0
0
0
0
0
0
0
0
0
0
0
0
0
0
0
0
0
0
0
0
0
0
0
0
1
1
0
0
0
0
0
0
0
0
0
0
0
0
0
0
0
0
0
0
0
0
1
1
0
0
0
0
0
0
0
0
0
0
0
0
0
0
0
0
0
0
0
0
0
0
0
0
0
0
0
0
0
0
0
0
0
1
1
0
0
0
0
0
0
0
0
0
0
0
0
0
0
0
0
0
0
0
0
1
1
0
0
0
0
0
0
0
0
0
0
0
0
0
0
0
0
0
0
0
0
0
0
0
0
0
0
0
0
0
0
0
0
0
1
1
0
0
0
0
0
0
0
0
0
0
0
0
0
0
0
0
0
0
0
0
1
1
0
0
0
0
0
0
0
0
0
0
0
0
0
0
0
0
0
0
0
0
0
0
0
0
0
0
0
0
0
0
0
0
0
1
1
0
0
0
0
0
0
0
0
0
0
0
0
0
0
0
0
0
0
0
0
1
1
0
0
0
0
0
0
0
0
0
0
0
0
0
0
0
0
0
0
0
0
0
0
0
0
0
0
0
0
0
0
0
0
0
1
1
0
0
0
0
0
0
0
0
0
0
0
0
0
0
0
0
0
0
0
0
1
1
0
0
0
0
0
0
0
0
0
0
0
0
0
0
0
0
0
0
0
0
0
0
0
0
0
0
0
0
0
0
0
0
0
1
1
0
0
0
0
0
0
0
0
0
0
0
0
0
0
0
0
0
0
0
0
1
1
0
0
0
0
0
0
0
0
0
0
0
0
0
0
0
0
0
0
0
0
0
0
0
0
0
0
0
0
0
0
0
0
0
1
1
1
1
1
1
1
1
1
1
1
1
1
1
1
1
1
1
1
1
1
1
1
1
1
1
1
1
1
1
1
1
1
1
1
1
1
1
1
1
1
1
1
1
1
1
1
1
1
1
1
1
1
1
1
1
1
1
				</DataArray>
				<DataArray type="Float64" Name="h" NumberOfComponents="1" Format="ascii">
1.1234506914
1.1213318162
1.1209282859
1.1201301811
1.1189551322
1.1174287107
1.1155837345
1.1134594835
1.1111008038
1.1085577004
1.1058848865
1.1031412237
1.1003895502
1.0976960023
1.0951288969
1.0927575871
1.0906503611
1.0888718465
1.0874801794
1.0865233584
1.0860358682
1.0860358682
1.2969717036
1.2978174010
1.2977665375
1.2976415962
1.2973956421
1.2969592242
1.2962406080
1.2951263787
1.2934862605
1.2911830977
1.2880901558
1.2841171664
1.2792413799
1.2735351583
1.2671808920
1.2604629737
1.2537315129
1.2473472885
1.2416240247
1.2367845624
1.2329429219
1.2301110898
1.2282214929
1.2271545755
1.2267640614
1.2268964931
1.2274032488
1.2281476302
1.2290091199
1.2298841988
1.2306866294
1.2313481575
1.2318176194
1.2320607238
1.2320607238
1.1213318162
1.1191975869
1.1187833356
1.1179648224
1.1167616471
1.1152020418
1.1133218862
1.1111636055
1.1087749277
1.1062081982
1.1035197217
1.1007690725
1.0980189118
1.0953343849
1.0927821619
1.0904295115
1.0883424232
1.0865832509
1.0852080853
1.0842632484
1.0837820504
1.0860358682
1.2978174010
1.2985896869
1.2985361333
1.2984094794
1.2981699778
1.2977584969
1.2970959956
1.2960828124
1.2946013609
1.2925230963
1.2897222002
1.2860980368
1.2816040662
1.2762766184
1.2702553897
1.2637850213
1.2571895157
1.2508244286
1.2450196645
1.2400293368
1.2360041031
1.2329890238
1.2309405478
1.2297526443
1.2292833481
1.2293767737
1.2298777913
1.2306412499
1.2315377429
1.2324554084
1.2333007493
1.2339996152
1.2344964168
1.2347539202
1.2320607238
1.1215823780
1.1194488371
1.1190355622
1.1182188998
1.1170182640
1.1154616446
1.1135846595
1.1114294895
1.1090436647
1.1064793965
1.1037929248
1.1010438164
1.0982947638
1.0956109588
1.0930591145
1.0907065339
1.0886192406
1.0868596467
1.0854839471
1.0845386126
1.0840571124
1.0862941007
1.2975418073
1.2982846073
1.2982313768
1.2981052877
1.2978664528
1.2974555989
1.2967935835
1.2957807344
1.2942996733
1.2922224745
1.2894245673
1.2858073539
1.2813270488
1.2760230135
1.2700374594
1.2636160585
1.2570816405
1.2507863080
1.2450549070
1.2401360632
1.2361756657
1.2332154415
1.2312101325
1.2300534097
1.2296040307
1.2297074889
1.2302104052
1.2309695603
1.2318575434
1.2327644535
1.2335986288
1.2342875449
1.2347769319
1.2350304852
1.2324886880
1.1220718651
1.1199398851
1.1195286756
1.1187159423
1.1175207312
1.1159705513
1.1141004971
1.1119522585
1.1095729614
1.1070145355
1.1043330700
1.1015880907
1.0988423211
1.0961610107
1.0936109220
1.0912593889
1.0891724709
1.0874126705
1.0860363764
1.0850903548
1.0846084007
1.0868118616
1.2969989355
1.2976852183
1.2976327049
1.2975078860
1.2972705918
1.2968612625
1.2962005492
1.2951887553
1.2937089199
1.2916343609
1.2888430051
1.2852403110
1.2807879313
1.2755311430
1.2696169585
1.2632928382
1.2568790300
1.2507206196
1.2451323976
1.2403522348
1.2365167958
1.2336614693
1.2317378744
1.2306393112
1.2302261405
1.2303467079
1.2308511689
1.2316001459
1.2324701475
1.2333550795
1.2341668084
1.2348359104
1.2353106149
1.2355563705
1.2333029996
1.1227782479
1.1206491175
1.1202412765
1.1194349836
1.1182487426
1.1167093508
1.1148511234
1.1127150092
1.1103475106
1.1078001021
1.1051285978
1.1023923987
1.0996541971
1.0969792420
1.0944342766
1.0920865887
1.0900022058
1.0882436991
1.0868677081
1.0859214352
1.0854391803
1.0875927104
1.2962049045
1.2968123244
1.2967610080
1.2966383373
1.2964037194
1.2959971633
1.2953390088
1.2943295229
1.2928523792
1.2907827779
1.2880023993
1.2844227403
1.2800134386
1.2748282849
1.2690209395
1.2628408989
1.2566039964
1.2506445618
1.2452624925
1.2406800883
1.2370209434
1.2343117265
1.2325000506
1.2314791722
1.2311121975
1.2312519341
1.2317538819
1.2324843409
1.2333255011
1.2341766922
1.2349547320
1.2355944925
1.2360476315
1.2362819853
1.2344279658
1.1236695263
1.1215453061
1.1211424234
1.1203456644
1.1191728319
1.1176497968
1.1158098509
1.1136929542
1.1113447530
1.1088160615
1.1061622435
1.1034424201
1.1007191031
1.0980573808
1.0955237984
1.0931854072
1.0911080303
1.0893542005
1.0879808143
1.0870356394
1.0865536813
1.0886413381
1.2951810845
1.2956937492
1.2956441904
1.2955247118
1.2952941612
1.2948919773
1.2942380857
1.2932327092
1.2917603872
1.2896988662
1.2869348511
1.2833878087
1.2790377146
1.2739490646
1.2682834043
1.2622918301
1.2562833977
1.2505777849
1.2454554643
1.2411190361
1.2376760461
1.2351429054
1.2334630255
1.2325304229
1.2322123679
1.2323678403
1.2328594472
1.2335608338
1.2343613694
1.2351670909
1.2359008240
1.2365025700
1.2369280276
1.2371478212
1.2357707240
1.1247053095
1.1225893049
1.1221932961
1.1214098305
1.1202558737
1.1187561847
1.1169428118
1.1148544902
1.1125357716
1.1100365742
1.1074115793
1.1047193891
1.1020220767
1.0993842804
1.0968720249
1.0945517847
1.0924888627
1.0907455266
1.0893788607
1.0884373103
1.0879568163
1.0899633203
1.2939514538
1.2943611195
1.2943138885
1.2941986750
1.2939736484
1.2935775524
1.2929298085
1.2919306017
1.2904655978
1.2884157986
1.2856742363
1.2821702254
1.2778961904
1.2729290222
1.2674386593
1.2616765854
1.2559421806
1.2505365220
1.2457166238
1.2416621618
1.2384627058
1.2361238278
1.2345852606
1.2337430267
1.2334701681
1.2336335336
1.2341044307
1.2347652357
1.2355136327
1.2362632443
1.2369435465
1.2375001170
1.2378929824
1.2380957221
1.2372376238
1.1258396150
1.1237369382
1.1233500498
1.1225843171
1.1214557678
1.1199879043
1.1182113513
1.1161634113
1.1138873094
1.1114318102
1.1088506244
1.1062015089
1.1035457177
1.1009470005
1.0984703665
1.0961811876
1.0941437461
1.0924196591
1.0910660229
1.0901320426
1.0896548636
1.0915658490
1.2925403987
1.2928470287
1.2928025121
1.2926922978
1.2924738002
1.2920849898
1.2914447359
1.2904532393
1.2889976194
1.2869629298
1.2842499014
1.2807995332
1.2766185388
1.2717973265
1.2665139384
1.2610182474
1.2555966092
1.2505276686
1.2460416381
1.2422931020
1.2393528431
1.2372159451
1.2358196069
1.2350634010
1.2348277779
1.2349889832
1.2354283159
1.2360378871
1.2367244121
1.2374095512
1.2380296735
1.2385360257
1.2388929666
1.2390769989
1.2387469432
1.1270227409
1.1249409202
1.1245656983
1.1238227625
1.1227271450
1.1213010034
1.1195734152
1.1175800882
1.1153627119
1.1129686323
1.1104502578
1.1078640879
1.1052700543
1.1027304185
1.1003084889
1.0980677940
1.0960708740
1.0943781078
1.0930462862
1.0921254129
1.0916541576
1.0934564270
1.2909689409
1.2911806229
1.2911387744
1.2910334782
1.2908213986
1.2904397429
1.2898068686
1.2888231432
1.2873775951
1.2853602808
1.2826811288
1.2792946429
1.2752233752
1.2705717565
1.2655248194
1.2603280915
1.2552512483
1.2505469724
1.2464161741
1.2429872847
1.2403125438
1.2383776774
1.2371189198
1.2364410323
1.2362333581
1.2363827541
1.2367814043
1.2373317324
1.2379497812
1.2385653174
1.2391215109
1.2395750961
1.2398945589
1.2400591553
1.2402388376
1.1282039349
1.1261534629
1.1257926977
1.1250781392
1.1240238183
1.1226505272
1.1209857438
1.1190634812
1.1169237271
1.1146121539
1.1121795078
1.1096805486
1.1071732676
1.1047176819
1.1023745159
1.1002044819
1.0982674027
1.0966215861
1.0953230179
1.0944224756
1.0939605427
1.0956423447
1.2892518325
1.2893841683
1.2893441715
1.2892422603
1.2890344955
1.2886574898
1.2880292937
1.2870507777
1.2856135614
1.2836139107
1.2809726535
1.2776596286
1.2737144503
1.2692554025
1.2644725563
1.2596037030
1.2548980330
1.2505792013
1.2468172279
1.2437143746
1.2413054564
1.2395685140
1.2384405682
1.2378330981
1.2376455228
1.2377761261
1.2381284460
1.2386153933
1.2391622792
1.2397067490
1.2401984492
1.2405992455
1.2408814242
1.2410267484
1.2416777231
1.1293348260
1.1273295551
1.1269862115
1.1263059901
1.1253019715
1.1239936344
1.1224068859
1.1205740193
1.1185332115
1.1163282361
1.1140078092
1.1116244210
1.1092334112
1.1068916577
1.1046562309
1.1025838189
1.1007302733
1.0991507105
1.0978995769
1.0970283092
1.0965798808
1.0981311961
1.2873960383
1.2874711230
1.2874309232
1.2873285385
1.2871198136
1.2867412107
1.2861109706
1.2851311331
1.2836969702
1.2817125581
1.2791116180
1.2758811658
1.2720787011
1.2678354216
1.2633436136
1.2588293579
1.2545175440
1.2506002976
1.2472160517
1.2444417639
1.2422965679
1.2407527652
1.2397498712
1.2392073494
1.2390355016
1.2391444490
1.2394491744
1.2398729311
1.2403499890
1.2408254628
1.2412550289
1.2416052512
1.2418518476
1.2419788215
1.2430498398
1.1303714897
1.1284287859
1.1281059319
1.1274662429
1.1265219536
1.1252913549
1.1237988928
1.1220751953
1.1201565855
1.1180847569
1.1159060425
1.1136701111
1.1114288793
1.1092350861
1.1071409214
1.1051976202
1.1034555258
1.1019651162
1.1007782758
1.0999468605
1.0995168265
1.1009296015
1.2853974204
1.2854425664
1.2853983860
1.2852884619
1.2850691852
1.2846777404
1.2840335215
1.2830409236
1.2816005028
1.2796262887
1.2770672362
1.2739293214
1.2702881851
1.2662860605
1.2621136824
1.2579809175
1.2540846325
1.2505835292
1.2475845575
1.2451409088
1.2432581457
1.2419048226
1.2410244599
1.2405454437
1.2403894032
1.2404783696
1.2407385892
1.2411033152
1.2415153381
1.2419267654
1.2422988345
1.2426023796
1.2428161990
1.2429262908
1.2443597728
1.1312767027
1.1294172771
1.1291180185
1.1285251579
1.1276502358
1.1265105444
1.1251292517
1.1235354484
1.1217636286
1.1198532765
1.1178480215
1.1157941692
1.1137394214
1.1117313213
1.1098158432
1.1080371592
1.1064382929
1.1050632829
1.1039600795
1.1031805465
1.1027743643
1.1040427050
1.2832392181
1.2832856089
1.2832314435
1.2831028242
1.2828580078
1.2824364068
1.2817602192
1.2807381368
1.2792784123
1.2773078359
1.2747932531
1.2717611278
1.2683046405
1.2645739965
1.2607535754
1.2570320507
1.2535747350
1.2505056330
1.2479010011
1.2457922723
1.2441737057
1.2430119940
1.2422559118
1.2418433983
1.2417075719
1.2417822278
1.2420045508
1.2423173804
1.2426715749
1.2430257856
1.2433463943
1.2436081371
1.2437926003
1.2438875743
1.2456246588
1.1320223241
1.1302697264
1.1299971537
1.1294574054
1.1286615148
1.1276260124
1.1263730276
1.1249303020
1.1233305848
1.1216110775
1.1198124344
1.1179770954
1.1161477826
1.1143657885
1.1126694940
1.1110942759
1.1096737852
1.1084434466
1.1074454795
1.1067310964
1.1063546189
1.1074749281
1.2808932347
1.2809746568
1.2809017420
1.2807382989
1.2804465634
1.2799705670
1.2792379192
1.2781645710
1.2766698639
1.2746968689
1.2722331343
1.2693265376
1.2660859409
1.2626649956
1.2592358208
1.2559605440
1.2529696949
1.2503519391
1.2481542072
1.2463884825
1.2450400033
1.2440753128
1.2434494406
1.2431102810
1.2430024412
1.2430712441
1.2432644710
1.2435341716
1.2438388913
1.2441434683
1.2444191113
1.2446441799
1.2448028307
1.2448844992
1.2468686324
1.1325900888
1.1309698612
1.1307270092
1.1302465558
1.1295392328
1.1286210732
1.1275134407
1.1262429557
1.1248407514
1.1233417253
1.1217833455
1.1202037523
1.1186399956
1.1171261282
1.1156915933
1.1143611963
1.1131569770
1.1121031957
1.1112340382
1.1105990521
1.1102583080
1.1112293203
1.2783198225
1.2784716378
1.2783680805
1.2781482198
1.2777814461
1.2772199409
1.2764005399
1.2752506570
1.2737051955
1.2717276271
1.2693288143
1.2665778628
1.2635957407
1.2605333292
1.2575435311
1.2547563957
1.2522649091
1.2501224198
1.2483483986
1.2469378824
1.2458693202
1.2451106520
1.2446239872
1.2443674619
1.2442971343
1.2443696496
1.2445431267
1.2447785667
1.2450419476
1.2453040664
1.2455407594
1.2457338305
1.2458698671
1.2459398566
1.2481190746
1.1329723554
1.1315108779
1.1313006880
1.1308855255
1.1302760281
1.1294879998
1.1285423203
1.1274647334
1.1262849151
1.1250354851
1.1237505839
1.1224637129
1.1212056747
1.1200024229
1.1188732347
1.1178306173
1.1168826559
1.1160395404
1.1153245236
1.1147839566
1.1144849323
1.1153076951
1.2754724199
1.2757308854
1.2755814917
1.2752781580
1.2748019406
1.2741180462
1.2731777337
1.2719254237
1.2703170576
1.2683408942
1.2660329662
1.2634817104
1.2608145097
1.2581715252
1.2556786823
1.2534285719
1.2514745589
1.2498354151
1.2485054684
1.2474654475
1.2466891860
1.2461474537
1.2458101827
1.2456460316
1.2456225393
1.2457075828
1.2458695064
1.2460781589
1.2463068457
1.2465322287
1.2467346876
1.2468993828
1.2470152619
1.2470748172
1.2494029645
1.1331726589
1.1318957836
1.1317210589
1.1313768986
1.1308740403
1.1302283107
1.1294603745
1.1285953426
1.1276616113
1.1266895956
1.1257100487
1.1247516144
1.1238384312
1.1229876824
1.1222074486
1.1214963653
1.1208462229
1.1202499291
1.1197162049
1.1192858992
1.1190344346
1.1197122476
1.2723076898
1.2727096701
1.2724959807
1.2720772374
1.2714522414
1.2706055146
1.2695093247
1.2681318778
1.2664563132
1.2644997683
1.2623238687
1.2600322369
1.2577507074
1.2555992978
1.2536688751
1.2520097803
1.2506345958
1.2495290166
1.2486649545
1.2480115725
1.2475402252
1.2472258974
1.2470470889
1.2469833340
1.2470138117
1.2471176935
1.2472735999
1.2474602810
1.2476583993
1.2478505042
1.2480215299
1.2481599750
1.2482571282
1.2483069739
1.2507441907
1.1332049428
1.1321364934
1.1319998370
1.1317319755
1.1313439141
1.1308517240
1.1302760980
1.1296417481
1.1289759851
1.1283071459
1.1276626343
1.1270661607
1.1265349740
1.1260770512
1.1256885131
1.1253528125
1.1250432455
1.1247320226
1.1244089533
1.1241059496
1.1239078157
1.1244460958
1.2687956880
1.2693787370
1.2690794522
1.2685101264
1.2676950163
1.2666454514
1.2653623842
1.2638453829
1.2621109836
1.2602082120
1.2582225793
1.2562661863
1.2544533060
1.2528735362
1.2515749824
1.2505620287
1.2498064428
1.2492631277
1.2488846879
1.2486315634
1.2484747679
1.2483949018
1.2483798359
1.2484204464
1.2485078539
1.2486327313
1.2487841634
1.2489499767
1.2491183186
1.2492777258
1.2494177576
1.2495302747
1.2496089163
1.2496491647
1.2521618969
1.1330927123
1.1322529402
1.1321566555
1.1319697719
1.1317037007
1.1313749450
1.1310044439
1.1306167412
1.1302382880
1.1298955435
1.1296127210
1.1294086910
1.1292938024
1.1292666568
1.1293109776
1.1293940931
1.1294689230
1.1294835427
1.1294036626
1.1292472177
1.1291086312
1.1295146986
1.2649352772
1.2657378633
1.2653295951
1.2645741116
1.2635301813
1.2622439750
1.2607531848
1.2590962843
1.2573284840
1.2555317178
1.2538110133
1.2522777814
1.2510233721
1.2500968056
1.2494969406
1.2491800749
1.2490784300
1.2491191988
1.2492391523
1.2493929606
1.2495534692
1.2497083405
1.2498556887
1.2499982903
1.2501396066
1.2502821027
1.2504255853
1.2505671848
1.2507026949
1.2508267629
1.2509336567
1.2510186284
1.2510776795
1.2511077964
1.2536685118
1.1328675935
1.1322717267
1.1322176687
1.1321155297
1.1319772418
1.1318199059
1.1316649192
1.1315369151
1.1314617771
1.1314644021
1.1315661331
1.1317812949
1.1321135664
1.1325522943
1.1330687335
1.1336136230
1.1341181527
1.1345030884
1.1347041210
1.1347179602
1.1346471064
1.1349297351
1.2607698268
1.2618313332
1.2612896075
1.2603163211
1.2590141154
1.2574712583
1.2557694165
1.2539922514
1.2522368043
1.2506160856
1.2492474337
1.2482305761
1.2476224173
1.2474225958
1.2475763523
1.2479918021
1.2485643304
1.2491973094
1.2498155067
1.2503708853
1.2508403254
1.2512200136
1.2515191888
1.2517530917
1.2519379181
1.2520881906
1.2522146586
1.2523239407
1.2524195914
1.2525024453
1.2525715229
1.2526254625
1.2526626131
1.2526814533
1.2552682182
1.1325668979
1.1322238709
1.1322132277
1.1321982583
1.1321915241
1.1322108958
1.1322784753
1.1324193225
1.1326591780
1.1330218764
1.1335264434
1.1341832164
1.1349897214
1.1359264936
1.1369526563
1.1380024656
1.1389847906
1.1397905626
1.1403190503
1.1405356123
1.1405461750
1.1407145379
1.2563887549
1.2577487595
1.2570495259
1.2558378393
1.2542672362
1.2524723185
1.2505834077
1.2487327454
1.2470588454
1.2457003666
1.2447771448
1.2443655445
1.2444779060
1.2450584483
1.2459974823
1.2471573568
1.2484009601
1.2496125993
1.2507092338
1.2516432679
1.2523977848
1.2529788699
1.2534076446
1.2537122338
1.2539218010
1.2540630219
1.2541576432
1.2542217996
1.2542667805
1.2542995669
1.2543238785
1.2543416589
1.2543535350
1.2543594302
1.2569554267
1.1322310512
1.1321424835
1.1321754445
1.1322480751
1.1323736905
1.1325711452
1.1328635792
1.1332769676
1.1338375588
1.1345689281
1.1354887105
1.1366042372
1.1379078552
1.1393722282
1.1409452606
1.1425455923
1.1440602203
1.1453488101
1.1462676669
1.1467369206
1.1468566185
1.1469180933
1.2519052798
1.2536016506
1.2527245801
1.2512781165
1.2494650710
1.2474640167
1.2454537231
1.2436134906
1.2421179075
1.2411217473
1.2407356570
1.2410019636
1.2418817153
1.2432621088
1.2449813847
1.2468616652
1.2487395874
1.2504861003
1.2520148777
1.2532818779
1.2542783418
1.2550213274
1.2555442501
1.2558881794
1.2560951232
1.2562036654
1.2562462920
1.2562484067
1.2562287752
1.2562002928
1.2561711736
1.2561464737
1.2561289483
1.2561198655
1.2587128896
1.1319006531
1.1320601673
1.1321354495
1.1322931679
1.1325475333
1.1329186449
1.1334311131
1.1341125002
1.1349905016
1.1360896576
1.1374277210
1.1390107543
1.1408278521
1.1428459285
1.1450040324
1.1472078380
1.1493250706
1.1511848724
1.1525944201
1.1534088924
1.1537056933
1.1536615919
1.2473667535
1.2494332204
1.2483775911
1.2467583094
1.2448007455
1.2427126300
1.2407132956
1.2390206792
1.2378340114
1.2373110364
1.2375416122
1.2385271600
1.2401768690
1.2423258793
1.2447687350
1.2472966698
1.2497284334
1.2519281949
1.2538109398
1.2553389260
1.2565129335
1.2573614196
1.2579298560
1.2582716978
1.2584411023
1.2584878068
1.2584543328
1.2583747254
1.2582746590
1.2581724639
1.2580804533
1.2580064652
1.2579551367
1.2579289193
1.2605108787
1.1316149081
1.1320078240
1.1321220904
1.1323582448
1.1327314822
1.1332633378
1.1339802590
1.1349120354
1.1360887888
1.1375374255
1.1392777499
1.1413171272
1.1436448245
1.1462266994
1.1489994761
1.1518649407
1.1546834474
1.1572662722
1.1593763207
1.1607821200
1.1615062116
1.1613439250
1.2424280852
1.2448972443
1.2438172037
1.2422825702
1.2404511171
1.2385347081
1.2367840630
1.2354456239
1.2347305617
1.2347880295
1.2356810154
1.2373718657
1.2397271135
1.2425434773
1.2455865335
1.2486297595
1.2514840349
1.2540135296
1.2561385082
1.2578292610
1.2590963741
1.2599790517
1.2605336108
1.2608244769
1.2609165181
1.2608692410
1.2607339687
1.2605523228
1.2603559729
1.2601679362
1.2600040263
1.2598743914
1.2597852073
1.2597398863
1.2623063018
1.1314128485
1.1320162564
1.1321637264
1.1324666793
1.1329411751
1.1336100337
1.1345013893
1.1356471595
1.1370798406
1.1388287142
1.1409157887
1.1433501740
1.1461225685
1.1492012159
1.1525289379
1.1560226887
1.1595756529
1.1630599437
1.1663366239
1.1693225525
1.1723866734
1.1720780970
1.2346351961
1.2375872144
1.2383001881
1.2379384915
1.2368893710
1.2355779380
1.2343804536
1.2336051878
1.2334826841
1.2341550815
1.2356643268
1.2379469538
1.2408457558
1.2441395094
1.2475833302
1.2509472637
1.2540437622
1.2567422365
1.2589702883
1.2607060899
1.2619686165
1.2628057451
1.2632822695
1.2634712248
1.2634459764
1.2632737917
1.2630130529
1.2627114832
1.2624055234
1.2621218927
1.2618791346
1.2616891216
1.2615591506
1.2614933262
1.2640428344
1.1313363780
1.1321196393
1.1322925421
1.1326465880
1.1331983789
1.1339714910
1.1349949358
1.1363015341
1.1379241877
1.1398912685
1.1422214059
1.1449157470
1.1479494685
1.1512636924
1.1547558122
1.1582679437
1.1615690115
1.1643169645
1.1659879435
1.1657833498
1.1627176198
1.1560475778
1.1565075930
1.1863653711
1.2539863283
1.2454863430
1.2421074986
1.2397471372
1.2377923869
1.2361980604
1.2350808580
1.2345907187
1.2348527891
1.2359365559
1.2378355695
1.2404575280
1.2436316210
1.2471332846
1.2507208460
1.2541708989
1.2573030425
1.2599938273
1.2621774901
1.2638377787
1.2649989995
1.2657144042
1.2660540056
1.2660964123
1.2659207474
1.2655996272
1.2651964257
1.2647632386
1.2643398692
1.2639556230
1.2636309128
1.2633787024
1.2632069649
1.2631202140
1.2656540545
1.1314324401
1.1323581349
1.1325481565
1.1329366319
1.1335406611
1.1343845446
1.1354982144
1.1369156328
1.1386707141
1.1407922406
1.1432981679
1.1461869857
1.1494286926
1.1529575438
1.1566652491
1.1603975379
1.1639547396
1.1670905282
1.1695135750
1.1709255431
1.1712171231
1.1705162125
1.1597628520
1.1892366322
1.2299410680
1.2346397717
1.2367303471
1.2374080976
1.2373500816
1.2370567832
1.2369051177
1.2371622482
1.2379991482
1.2395026342
1.2416785480
1.2444517460
1.2476742101
1.2511458883
1.2546480514
1.2579761719
1.2609632088
1.2634946493
1.2655103394
1.2669970335
1.2679811469
1.2685179408
1.2686794080
1.2685467263
1.2682020572
1.2677209756
1.2671697866
1.2666032299
1.2660630820
1.2655801420
1.2651758615
1.2648637034
1.2646519091
1.2645451439
1.2670666299
1.1317468500
1.1327721265
1.1329713273
1.1333784638
1.1340113772
1.1348955153
1.1360624220
1.1375483057
1.1393898230
1.1416188374
1.1442566437
1.1473048954
1.1507364879
1.1544892949
1.1584615286
1.1625134143
1.1664773140
1.1701693484
1.1734034072
1.1760147189
1.1778906187
1.1785840656
1.1734345414
1.1930329206
1.2217203242
1.2300929455
1.2343278181
1.2366752139
1.2380219375
1.2389165567
1.2397468422
1.2407772711
1.2421740910
1.2440281602
1.2463636926
1.2491376312
1.2522418857
1.2555162704
1.2587766235
1.2618446545
1.2645702104
1.2668483130
1.2686231357
1.2698822128
1.2706514686
1.2709855297
1.2709558560
1.2706438199
1.2701324128
1.2694981952
1.2688086660
1.2681197325
1.2674739696
1.2669027540
1.2664278910
1.2660628770
1.2658159093
1.2656916108
1.2682055622
1.1323134308
1.1333916654
1.1335926137
1.1340037040
1.1346438310
1.1355400820
1.1367263285
1.1382420155
1.1401279141
1.1424208403
1.1451478607
1.1483167482
1.1519064167
1.1558606214
1.1600834572
1.1644423621
1.1687811217
1.1729337769
1.1767362587
1.1800276463
1.1825952766
1.1837622668
1.1813360576
1.1949929148
1.2164402198
1.2267955851
1.2328399899
1.2366358730
1.2391836413
1.2410918618
1.2427601090
1.2444425035
1.2462927636
1.2484007657
1.2508068281
1.2534997228
1.2564122623
1.2594256891
1.2623918523
1.2651595182
1.2675954775
1.2696035613
1.2711310323
1.2721648353
1.2727289990
1.2728761311
1.2726758450
1.2722083581
1.2715561196
1.2707953878
1.2699936551
1.2692069450
1.2684778062
1.2678375560
1.2673078899
1.2669020520
1.2666280151
1.2664902513
1.2690023596
1.1331481840
1.1342308448
1.1344264717
1.1348274955
1.1354540720
1.1363352311
1.1375075638
1.1390142130
1.1409006358
1.1432093343
1.1459740377
1.1492096856
1.1529022244
1.1570016761
1.1614167863
1.1660177089
1.1706495696
1.1751467540
1.1793434475
1.1830675774
1.1860651968
1.1876617383
1.1866916088
1.1965602222
1.2133285059
1.2244083663
1.2316836764
1.2365483518
1.2399687517
1.2425952053
1.2448494079
1.2469866697
1.2491538878
1.2514379480
1.2538867190
1.2565086889
1.2592652217
1.2620687883
1.2647998763
1.2673295117
1.2695386729
1.2713384849
1.2726785582
1.2735450955
1.2739602896
1.2739747934
1.2736563779
1.2730838647
1.2723386915
1.2714962626
1.2706234497
1.2697758059
1.2689954075
1.2683131750
1.2677504644
1.2673201659
1.2670299800
1.2668842044
1.2694003304
1.1342480585
1.1352866510
1.1354702513
1.1358478357
1.1364408557
1.1372803085
1.1384054928
1.1398631402
1.1417032193
1.1439737292
1.1467149037
1.1499488958
1.1536690678
1.1578323535
1.1623528720
1.1671037198
1.1719301027
1.1766633919
1.1811314421
1.1851512036
1.1884516689
1.1903894812
1.1901743577
1.1981336247
1.2123978879
1.2233803976
1.2310079840
1.2362192160
1.2399215895
1.2427835736
1.2452437402
1.2475617127
1.2498785953
1.2522709167
1.2547777980
1.2574056937
1.2601221994
1.2628520320
1.2654902063
1.2679207735
1.2700338368
1.2717456120