<VTKFile type="UnstructuredGrid" version="0.1">
	<UnstructuredGrid>
		<Piece NumberOfPoints="13548" NumberOfCells="3387">
			<CellData>
				<DataArray type="Int32" Name="ghost" NumberOfComponents="1" Format="ascii">
1
1
1
1
1
1
1
1
1
1
1
1
1
1
1
1
1
1
1
1
1
1
1
1
1
1
1
1
1
1
1
1
1
1
1
1
1
1
1
1
1
1
1
1
1
1
1
1
1
1
1
1
1
1
1
1
1
1
0
0
0
0
0
0
0
0
0
0
0
0
0
0
0
0
0
0
0
0
1
1
0
0
0
0
0
0
0
0
0
0
0
0
0
0
0
0
0
0
0
0
0
0
0
0
0
0
0
0
0
0
0
0
0
1
1
0
0
0
0
0
0
0
0
0
0
0
0
0
0
0
0
0
0
0
0
1
1
0
0
0
0
0
0
0
0
0
0
0
0
0
0
0
0
0
0
0
0
0
0
0
0
0
0
0
0
0
0
0
0
0
1
1
0
0
0
0
0
0
0
0
0
0
0
0
0
0
0
0
0
0
0
0
1
1
0
0
0
0
0
0
0
0
0
0
0
0
0
0
0
0
0
0
0
0
0
0
0
0
0
0
0
0
0
0
0
0
0
1
1
0
0
0
0
0
0
0
0
0
0
0
0
0
0
0
0
0
0
0
0
1
1
0
0
0
0
0
0
0
0
0
0
0
0
0
0
0
0
0
0
0
0
0
0
0
0
0
0
0
0
0
0
0
0
0
1
1
0
0
0
0
0
0
0
0
0
0
0
0
0
0
0
0
0
0
0
0
1
1
0
0
0
0
0
0
0
0
0
0
0
0
0
0
0
0
0
0
0
0
0
0
0
0
0
0
0
0
0
0
0
0
0
1
1
0
0
0
0
0
0
0
0
0
0
0
0
0
0
0
0
0
0
0
0
1
1
0
0
0
0
0
0
0
0
0
0
0
0
0
0
0
0
0
0
0
0
0
0
0
0
0
0
0
0
0
0
0
0
0
1
1
0
0
0
0
0
0
0
0
0
0
0
0
0
0
0
0
0
0
0
0
1
1
0
0
0
0
0
0
0
0
0
0
0
0
0
0
0
0
0
0
0
0
0
0
0
0
0
0
0
0
0
0
0
0
0
1
1
0
0
0
0
0
0
0
0
0
0
0
0
0
0
0
0
0
0
0
0
1
1
0
0
0
0
0
0
0
0
0
0
0
0
0
0
0
0
0
0
0
0
0
0
0
0
0
0
0
0
0
0
0
0
0
1
1
0
0
0
0
0
0
0
0
0
0
0
0
0
0
0
0
0
0
0
0
1
1
0
0
0
0
0
0
0
0
0
0
0
0
0
0
0
0
0
0
0
0
0
0
0
0
0
0
0
0
0
0
0
0
0
1
1
0
0
0
0
0
0
0
0
0
0
0
0
0
0
0
0
0
0
0
0
1
1
0
0
0
0
0
0
0
0
0
0
0
0
0
0
0
0
0
0
0
0
0
0
0
0
0
0
0
0
0
0
0
0
0
1
1
0
0
0
0
0
0
0
0
0
0
0
0
0
0
0
0
0
0
0
0
1
1
0
0
0
0
0
0
0
0
0
0
0
0
0
0
0
0
0
0
0
0
0
0
0
0
0
0
0
0
0
0
0
0
0
1
1
0
0
0
0
0
0
0
0
0
0
0
0
0
0
0
0
0
0
0
0
1
1
0
0
0
0
0
0
0
0
0
0
0
0
0
0
0
0
0
0
0
0
0
0
0
0
0
0
0
0
0
0
0
0
0
1
1
0
0
0
0
0
0
0
0
0
0
0
0
0
0
0
0
0
0
0
0
1
1
0
0
0
0
0
0
0
0
0
0
0
0
0
0
0
0
0
0
0
0
0
0
0
0
0
0
0
0
0
0
0
0
0
1
1
0
0
0
0
0
0
0
0
0
0
0
0
0
0
0
0
0
0
0
0
1
1
0
0
0
0
0
0
0
0
0
0
0
0
0
0
0
0
0
0
0
0
0
0
0
0
0
0
0
0
0
0
0
0
0
1
1
0
0
0
0
0
0
0
0
0
0
0
0
0
0
0
0
0
0
0
0
1
1
0
0
0
0
0
0
0
0
0
0
0
0
0
0
0
0
0
0
0
0
0
0
0
0
0
0
0
0
0
0
0
0
0
1
1
0
0
0
0
0
0
0
0
0
0
0
0
0
0
0
0
0
0
0
0
1
1
0
0
0
0
0
0
0
0
0
0
0
0
0
0
0
0
0
0
0
0
0
0
0
0
0
0
0
0
0
0
0
0
0
1
1
0
0
0
0
0
0
0
0
0
0
0
0
0
0
0
0
0
0
0
0
1
1
0
0
0
0
0
0
0
0
0
0
0
0
0
0
0
0
0
0
0
0
0
0
0
0
0
0
0
0
0
0
0
0
0
1
1
0
0
0
0
0
0
0
0
0
0
0
0
0
0
0
0
0
0
0
0
1
1
0
0
0
0
0
0
0
0
0
0
0
0
0
0
0
0
0
0
0
0
0
0
0
0
0
0
0
0
0
0
0
0
0
1
1
0
0
0
0
0
0
0
0
0
0
0
0
0
0
0
0
0
0
0
0
1
1
0
0
0
0
0
0
0
0
0
0
0
0
0
0
0
0
0
0
0
0
0
0
0
0
0
0
0
0
0
0
0
0
0
1
1
0
0
0
0
0
0
0
0
0
0
0
0
0
0
0
0
0
0
0
0
1
1
0
0
0
0
0
0
0
0
0
0
0
0
0
0
0
0
0
0
0
0
0
0
0
0
0
0
0
0
0
0
0
0
0
1
1
0
0
0
0
0
0
0
0
0
0
0
0
0
0
0
0
0
0
0
0
1
1
0
0
0
0
0
0
0
0
0
0
0
0
0
0
0
0
0
0
0
0
0
0
0
0
0
0
0
0
0
0
0
0
0
1
1
0
0
0
0
0
0
0
0
0
0
0
0
0
0
0
0
0
0
0
0
1
1
0
0
0
0
0
0
0
0
0
0
0
0
0
0
0
0
0
0
0
0
0
0
0
0
0
0
0
0
0
0
0
0
0
1
1
0
0
0
0
0
0
0
0
0
0
0
0
0
0
0
0
0
0
0
0
1
1
0
0
0
0
0
0
0
0
0
0
0
0
0
0
0
0
0
0
0
0
0
0
0
0
0
0
0
0
0
0
0
0
0
1
1
0
0
0
0
0
0
0
0
0
0
0
0
0
0
0
0
0
0
0
0
1
1
0
0
0
0
0
0
0
0
0
0
0
0
0
0
0
0
0
0
0
0
0
0
0
0
0
0
0
0
0
0
0
0
0
1
1
0
0
0
0
0
0
0
0
0
0
0
0
0
0
0
0
0
0
0
0
0
1
1
0
0
0
0
0
0
0
0
0
0
0
0
0
0
0
0
0
0
0
0
0
0
0
0
0
0
0
0
0
0
0
0
0
0
1
1
0
0
0
0
0
0
0
0
0
0
0
0
0
0
0
0
0
0
0
0
0
0
0
0
0
0
0
0
0
0
0
0
0
0
0
0
0
0
0
0
0
0
0
0
0
0
0
0
0
0
0
0
0
0
0
0
0
1
1
0
0
0
0
0
0
0
0
0
0
0
0
0
0
0
0
0
0
0
0
0
0
0
0
0
0
0
0
0
0
0
0
0
0
0
0
0
0
0
0
0
0
0
0
0
0
0
0
0
0
0
0
0
0
0
0
0
1
1
0
0
0
0
0
0
0
0
0
0
0
0
0
0
0
0
0
0
0
0
0
0
0
0
0
0
0
0
0
0
0
0
0
0
0
0
0
0
0
0
0
0
0
0
0
0
0
0
0
0
0
0
0
0
0
0
0
1
1
0
0
0
0
0
0
0
0
0
0
0
0
0
0
0
0
0
0
0
0
0
0
0
0
0
0
0
0
0
0
0
0
0
0
0
0
0
0
0
0
0
0
0
0
0
0
0
0
0
0
0
0
0
0
0
0
0
1
1
0
0
0
0
0
0
0
0
0
0
0
0
0
0
0
0
0
0
0
0
0
0
0
0
0
0
0
0
0
0
0
0
0
0
0
0
0
0
0
0
0
0
0
0
0
0
0
0
0
0
0
0
0
0
0
0
0
1
1
0
0
0
0
0
0
0
0
0
0
0
0
0
0
0
0
0
0
0
0
0
0
0
0
0
0
0
0
0
0
0
0
0
0
0
0
0
0
0
0
0
0
0
0
0
0
0
0
0
0
0
0
0
0
0
0
0
1
1
0
0
0
0
0
0
0
0
0
0
0
0
0
0
0
0
0
0
0
0
0
0
0
0
0
0
0
0
0
0
0
0
0
0
0
0
0
0
0
0
0
0
0
0
0
0
0
0
0
0
0
0
0
0
0
0
0
1
1
0
0
0
0
0
0
0
0
0
0
0
0
0
0
0
0
0
0
0
0
0
0
0
0
0
0
0
0
0
0
0
0
0
0
0
0
0
0
0
0
0
0
0
0
0
0
0
0
0
0
0
0
0
0
0
0
0
1
1
0
0
0
0
0
0
0
0
0
0
0
0
0
0
0
0
0
0
0
0
0
0
0
0
0
0
0
0
0
0
0
0
0
0
0
0
0
0
0
0
0
0
0
0
0
0
0
0
0
0
0
0
0
0
0
0
0
1
1
0
0
0
0
0
0
0
0
0
0
0
0
0
0
0
0
0
0
0
0
0
0
0
0
0
0
0
0
0
0
0
0
0
0
0
0
0
0
0
0
0
0
0
0
0
0
0
0
0
0
0
0
0
0
0
0
0
1
1
0
0
0
0
0
0
0
0
0
0
0
0
0
0
0
0
0
0
0
0
0
1
1
0
0
0
0
0
0
0
0
0
0
0
0
0
0
0
0
0
0
0
0
0
0
0
0
0
0
0
0
0
0
0
0
0
0
1
1
0
0
0
0
0
0
0
0
0
0
0
0
0
0
0
0
0
0
0
0
1
1
0
0
0
0
0
0
0
0
0
0
0
0
0
0
0
0
0
0
0
0
0
0
0
0
0
0
0
0
0
0
0
0
0
1
1
0
0
0
0
0
0
0
0
0
0
0
0
0
0
0
0
0
0
0
0
1
1
0
0
0
0
0
0
0
0
0
0
0
0
0
0
0
0
0
0
0
0
0
0
0
0
0
0
0
0
0
0
0
0
0
1
1
0
0
0
0
0
0
0
0
0
0
0
0
0
0
0
0
0
0
0
0
1
1
0
0
0
0
0
0
0
0
0
0
0
0
0
0
0
0
0
0
0
0
0
0
0
0
0
0
0
0
0
0
0
0
0
1
1
0
0
0
0
0
0
0
0
0
0
0
0
0
0
0
0
0
0
0
0
1
1
0
0
0
0
0
0
0
0
0
0
0
0
0
0
0
0
0
0
0
0
0
0
0
0
0
0
0
0
0
0
0
0
0
1
1
0
0
0
0
0
0
0
0
0
0
0
0
0
0
0
0
0
0
0
0
1
1
0
0
0
0
0
0
0
0
0
0
0
0
0
0
0
0
0
0
0
0
0
0
0
0
0
0
0
0
0
0
0
0
0
1
1
0
0
0
0
0
0
0
0
0
0
0
0
0
0
0
0
0
0
0
0
1
1
0
0
0
0
0
0
0
0
0
0
0
0
0
0
0
0
0
0
0
0
0
0
0
0
0
0
0
0
0
0
0
0
0
1
1
0
0
0
0
0
0
0
0
0
0
0
0
0
0
0
0
0
0
0
0
1
1
0
0
0
0
0
0
0
0
0
0
0
0
0
0
0
0
0
0
0
0
0
0
0
0
0
0
0
0
0
0
0
0
0
1
1
0
0
0
0
0
0
0
0
0
0
0
0
0
0
0
0
0
0
0
0
1
1
0
0
0
0
0
0
0
0
0
0
0
0
0
0
0
0
0
0
0
0
0
0
0
0
0
0
0
0
0
0
0
0
0
1
1
0
0
0
0
0
0
0
0
0
0
0
0
0
0
0
0
0
0
0
0
1
1
0
0
0
0
0
0
0
0
0
0
0
0
0
0
0
0
0
0
0
0
0
0
0
0
0
0
0
0
0
0
0
0
0
1
1
0
0
0
0
0
0
0
0
0
0
0
0
0
0
0
0
0
0
0
0
1
1
0
0
0
0
0
0
0
0
0
0
0
0
0
0
0
0
0
0
0
0
0
0
0
0
0
0
0
0
0
0
0
0
0
1
1
0
0
0
0
0
0
0
0
0
0
0
0
0
0
0
0
0
0
0
0
1
1
0
0
0
0
0
0
0
0
0
0
0
0
0
0
0
0
0
0
0
0
0
0
0
0
0
0
0
0
0
0
0
0
0
1
1
0
0
0
0
0
0
0
0
0
0
0
0
0
0
0
0
0
0
0
0
1
1
0
0
0
0
0
0
0
0
0
0
0
0
0
0
0
0
0
0
0
0
0
0
0
0
0
0
0
0
0
0
0
0
0
1
1
0
0
0
0
0
0
0
0
0
0
0
0
0
0
0
0
0
0
0
0
1
1
0
0
0
0
0
0
0
0
0
0
0
0
0
0
0
0
0
0
0
0
0
0
0
0
0
0
0
0
0
0
0
0
0
1
1
0
0
0
0
0
0
0
0
0
0
0
0
0
0
0
0
0
0
0
0
1
1
0
0
0
0
0
0
0
0
0
0
0
0
0
0
0
0
0
0
0
0
0
0
0
0
0
0
0
0
0
0
0
0
0
1
1
0
0
0
0
0
0
0
0
0
0
0
0
0
0
0
0
0
0
0
0
1
1
0
0
0
0
0
0
0
0
0
0
0
0
0
0
0
0
0
0
0
0
0
0
0
0
0
0
0
0
0
0
0
0
0
1
1
0
0
0
0
0
0
0
0
0
0
0
0
0
0
0
0
0
0
0
0
1
1
0
0
0
0
0
0
0
0
0
0
0
0
0
0
0
0
0
0
0
0
0
0
0
0
0
0
0
0
0
0
0
0
0
1
1
0
0
0
0
0
0
0
0
0
0
0
0
0
0
0
0
0
0
0
0
1
1
0
0
0
0
0
0
0
0
0
0
0
0
0
0
0
0
0
0
0
0
0
0
0
0
0
0
0
0
0
0
0
0
0
1
1
0
0
0
0
0
0
0
0
0
0
0
0
0
0
0
0
0
0
0
0
1
1
0
0
0
0
0
0
0
0
0
0
0
0
0
0
0
0
0
0
0
0
0
0
0
0
0
0
0
0
0
0
0
0
0
1
1
0
0
0
0
0
0
0
0
0
0
0
0
0
0
0
0
0
0
0
0
1
1
0
0
0
0
0
0
0
0
0
0
0
0
0
0
0
0
0
0
0
0
0
0
0
0
0
0
0
0
0
0
0
0
0
1
1
0
0
0
0
0
0
0
0
0
0
0
0
0
0
0
0
0
0
0
0
1
1
0
0
0
0
0
0
0
0
0
0
0
0
0
0
0
0
0
0
0
0
0
0
0
0
0
0
0
0
0
0
0
0
0
1
1
0
0
0
0
0
0
0
0
0
0
0
0
0
0
0
0
0
0
0
0
1
1
0
0
0
0
0
0
0
0
0
0
0
0
0
0
0
0
0
0
0
0
0
0
0
0
0
0
0
0
0
0
0
0
0
1
1
1
1
1
1
1
1
1
1
1
1
1
1
1
1
1
1
1
1
1
1
1
1
1
1
1
1
1
1
1
1
1
1
1
1
1
1
1
1
1
1
1
1
1
1
1
1
1
1
1
1
1
1
1
1
1
1
				</DataArray>
				<DataArray type="Float64" Name="h" NumberOfComponents="1" Format="ascii">
1.1717390950
1.1699241431
1.1698633784
1.1697489698
1.1695940522
1.1694162956
1.1692356199
1.1690714686
1.1689405313
1.1688546798
1.1688196127
1.1688346483
1.1688932376
1.1689844060
1.1690947110
1.1692102695
1.1693188928
1.1694114336
1.1694823293
1.1695294726
1.1695528137
1.1695528137
1.2569479081
1.2602060246
1.2583349142
1.2547035435
1.2495473376
1.2432399079
1.2362774333
1.2292194964
1.2226027104
1.2168540784
1.2122353128
1.2088356862
1.2066018448
1.2053853054
1.2049902948
1.2052103389
1.2058522069
1.2067482192
1.2077607955
1.2087832851
1.2097372492
1.2105690524
1.2112471250
1.2117578276
1.2121020475
1.2122928911
1.2123520129
1.2123067950
1.2121884909
1.2120290046
1.2118586155
1.2117046885
1.2115891936
1.2115273390
1.2115273390
1.1699241431
1.1680684018
1.1679969890
1.1678597756
1.1676671757
1.1674334540
1.1671751346
1.1669089955
1.1666504232
1.1664118132
1.1662014122
1.1660230425
1.1658763380
1.1657577130
1.1656617607
1.1655827381
1.1655161812
1.1654598297
1.1654138784
1.1653806414
1.1653630447
1.1695528137
1.2602060246
1.2631787217
1.2614385515
1.2580333843
1.2531344818
1.2470374301
1.2401671574
1.2330391889
1.2261846803
1.2200610313
1.2149815265
1.2110901377
1.2083779168
1.2067247505
1.2059479955
1.2058430623
1.2062118331
1.2068786710
1.2076974429
1.2085537298
1.2093627431
1.2100660718
1.2106288205
1.2110352132
1.2112849108
1.2113904319
1.2113732412
1.2112607627
1.2110844012
1.2108762358
1.2106667112
1.2104833247
1.2103481399
1.2102764266
1.2115273390
1.1696103805
1.1677934772
1.1677238928
1.1675902868
1.1674029646
1.1671760086
1.1669256733
1.1666683830
1.1664191018
1.1661897652
1.1659881664
1.1658177224
1.1656777441
1.1655644311
1.1654722822
1.1653955857
1.1653300388
1.1652736718
1.1652270831
1.1651930499
1.1651749242
1.1693421021
1.2600580136
1.2630715329
1.2613385426
1.2579497258
1.2530793291
1.2470252197
1.2402120866
1.2331517796
1.2263690253
1.2203140311
1.2152943597
1.2114510516
1.2087750505
1.2071481127
1.2063903528
1.2062999728
1.2066812111
1.2073601831
1.2081919240
1.2090627031
1.2098880414
1.2106095498
1.2111921423
1.2116196869
1.2118913641
1.2120191274
1.2120238224
1.2119322333
1.2117751362
1.2115840214
1.2113888101
1.2112165589
1.2110889908
1.2110211450
1.2122105113
1.1689893116
1.1672485056
1.1671826312
1.1670563326
1.1668796750
1.1666663467
1.1664320364
1.1661924406
1.1659616694
1.1657507398
1.1655665505
1.1654117252
1.1652849481
1.1651820064
1.1650972206
1.1650249480
1.1649612098
1.1649046181
1.1648565861
1.1648208309
1.1648015752
1.1689237532
1.2597500762
1.2628429456
1.2611248073
1.2577694939
1.2529568865
1.2469890079
1.2402897317
1.2333634445
1.2267221959
1.2208022061
1.2159000333
1.2121511830
1.2095465327
1.2079715812
1.2072518805
1.2071911125
1.2075981371
1.2083025057
1.2091615441
1.2100628683
1.2109225978
1.2116823693
1.2123066955
1.2127787069
1.2130965905
1.2132711275
1.2133218747
1.2132742775
1.2131577886
1.2130026517
1.2128376712
1.2126889587
1.2125775022
1.2125178408
1.2135859712
1.1680748749
1.1664442791
1.1663840890
1.1662689589
1.1661085381
1.1659158577
1.1657056944
1.1654926076
1.1652894058
1.1651057361
1.1649471849
1.1648152289
1.1647076583
1.1646196798
1.1645453721
1.1644792065
1.1644176915
1.1643603134
1.1643097206
1.1642710746
1.1642499515
1.1683050815
1.2592591615
1.2624654477
1.2607707549
1.2574675821
1.2527434442
1.2469056161
1.2403759550
1.2336474130
1.2272134870
1.2214903834
1.2167592077
1.2131479346
1.2106476929
1.2091495934
1.2084871457
1.2084719994
1.2089197223
1.2096648532
1.2105680428
1.2115188583
1.2124342707
1.2132559173
1.2139476671
1.2144914896
1.2148840073
1.2151341468
1.2152594116
1.2152830964
1.2152325091
1.2151358527
1.2150200859
1.2149097437
1.2148245781
1.2147782803
1.2156695719
1.1668878840
1.1653969031
1.1653444760
1.1652445514
1.1651061303
1.1649412554
1.1647633832
1.1645854832
1.1644185994
1.1642705697
1.1641452861
1.1640427735
1.1639597087
1.1638905904
1.1638292159
1.1637702242
1.1637107716
1.1636515098
1.1635967601
1.1635536760
1.1635297338
1.1674963051
1.2585512256
1.2618986041
1.2602372823
1.2570070199
1.2524040150
1.2467407905
1.2404351403
1.2339644064
1.2277982169
1.2223278165
1.2178155434
1.2143806562
1.2120152025
1.2106177456
1.2100320394
1.2100798988
1.2105854296
1.2113895221
1.2123570667
1.2133801153
1.2143767057
1.2152884239
1.2160782240
1.2167264493
1.2172275233
1.2175877441
1.2178216775
1.2179495059
1.2179953973
1.2179845321
1.2179411017
1.2178872526
1.2178408456
1.2178142648
1.2184799799
1.1654564081
1.1641282222
1.1640857152
1.1640051549
1.1638946008
1.1637647049
1.1636271325
1.1634927712
1.1633704286
1.1632657175
1.1631805000
1.1631131010
1.1630589221
1.1630116686
1.1629648408
1.1629133023
1.1628550079
1.1627920609
1.1627309137
1.1626813249
1.1626533131
1.1665105308
1.2575823508
1.2610904985
1.2594741148
1.2563401240
1.2518932591
1.2464499539
1.2404209354
1.2342636147
1.2284191846
1.2232502831
1.2189984805
1.2157740357
1.2135709414
1.2122969763
1.2118081128
1.2119381585
1.2125212656
1.2134058060
1.2144616770
1.2155838724
1.2166916777
1.2177265639
1.2186502891
1.2194410813
1.2200904820
1.2206013049
1.2209841739
1.2212550403
1.2214337469
1.2215412559
1.2215978484
1.2216222588
1.2216296203
1.2216304158
1.2220321860
1.1638163916
1.1626665773
1.1626361655
1.1625791325
1.1625022500
1.1624143177
1.1623246899
1.1622416558
1.1621713215
1.1621166932
1.1620773225
1.1620496488
1.1620276917
1.1620043172
1.1619727271
1.1619280577
1.1618691903
1.1617999484
1.1617293961
1.1616705942
1.1616368840
1.1653648315
1.2563008797
1.2599802985
1.2584221732
1.2554105132
1.2511570814
1.2459794572
1.2402773790
1.2344840111
1.2290084724
1.2241825774
1.2202264809
1.2172420333
1.2152264910
1.2140984532
1.2137276926
1.2139613939
1.2146448822
1.2156348650
1.2168068444
1.2180591275
1.2193124018
1.2205079651
1.2216061132
1.2225824786
1.2234250235
1.2241321761
1.2247095302
1.2251675628
1.2255204454
1.2257835384
1.2259718672
1.2260995335
1.2261779342
1.2262149298
1.2263288694
1.1620102762
1.1610456546
1.1610294360
1.1609999179
1.1609622046
1.1609227476
1.1608880484
1.1608632828
1.1608514164
1.1608525150
1.1608635982
1.1608790937
1.1608915804
1.1608930660
1.1608764535
1.1608371736
1.1607751190
1.1606960702
1.1606122030
1.1605406918
1.1604991746
1.1640789574
1.2546488971
1.2585001955
1.2570153285
1.2541545452
1.2501337337
1.2452674896
1.2399399029
1.2345557983
1.2294896502
1.2250416652
1.2214111834
1.2186929636
1.2168889990
1.2159300461
1.2157007801
1.2160626369
1.2168728079
1.2179968765
1.2193163531
1.2207331327
1.2221694339
1.2235663411
1.2248824617
1.2260903982
1.2271738731
1.2281260451
1.2289463816
1.2296386041
1.2302097982
1.2306682462
1.2310222633
1.2312799858
1.2314479644
1.2315306387
1.2313515013
1.1600860187
1.1593038471
1.1593037266
1.1593053206
1.1593116823
1.1593264222
1.1593526653
1.1593919926
1.1594438388
1.1595050539
1.1595699632
1.1596309061
1.1596789956
1.1597053710
1.1597026152
1.1596664258
1.1595977226
1.1595044210
1.1594023215
1.1593136656
1.1592616365
1.1626755109
1.2525647478
1.2565783946
1.2551830680
1.2525034297
1.2487553190
1.2442451194
1.2393362188
1.2344015147
1.2297794302
1.2257391024
1.2224606709
1.2200335930
1.2184660179
1.2177017781
1.2176409753
1.2181595902
1.2191268890
1.2204175199
1.2219191820
1.2235375178
1.2251963691
1.2268365862
1.2284149181
1.2299005818
1.2312724947
1.2325177632
1.2336287356
1.2346011958
1.2354338219
1.2361264233
1.2366792196
1.2370931047
1.2373687147
1.2375062964
1.2370509186
1.1580954748
1.1574831420
1.1575007221
1.1575364368
1.1575909375
1.1576645487
1.1577565553
1.1578645311
1.1579840601
1.1581085657
1.1582295686
1.1583372785
1.1584213298
1.1584719683
1.1584813901
1.1584454515
1.1583660072
1.1582531871
1.1581269139
1.1580156205
1.1579496584
1.1611811189
1.2499863527
1.2541429574
1.2528538951
1.2503858759
1.2469496042
1.2428374274
1.2383870890
1.2339368057
1.2297887510
1.2261826455
1.2232817202
1.2211720561
1.2198690542
1.2193299373
1.2194700547
1.2201795663
1.2213394820
1.2228333118
1.2245548696
1.2264135623
1.2283348914
1.2302594613
1.2321420542
1.2339482557
1.2356517666
1.2372330572
1.2386766052
1.2399693539
1.2411005570
1.2420604769
1.2428401681
1.2434322960
1.2438307579
1.2440310130
1.2433399407
1.1560909797
1.1556263084
1.1556628011
1.1557349017
1.1558405789
1.1559765189
1.1561378054
1.1563176936
1.1565076833
1.1566976261
1.1568761697
1.1570313677
1.1571513519
1.1572254109
1.1572452134
1.1572065511
1.1571119686
1.1569737318
1.1568163245
1.1566756895
1.1565914855
1.1596253000
1.2468528556
1.2511239333
1.2499570598
1.2477291653
1.2446404114
1.2409634087
1.2370060507
1.2330702918
1.2294230523
1.2262771141
1.2237813576
1.2220201428
1.2210165677
1.2207407211
1.2211221664
1.2220641209
1.2234584119
1.2251967810
1.2271788062
1.2293175152
1.2315400380
1.2337867277
1.2360103653
1.2381728047
1.2402423436
1.2421925399
1.2439996425
1.2456413241
1.2470969350
1.2483466920
1.2493719961
1.2501568414
1.2506880228
1.2509559524
1.2500921240
1.1541223847
1.1537746047
1.1538307847
1.1539407178
1.1540995127
1.1542999958
1.1545328263
1.1547867534
1.1550490567
1.1553059342
1.1555431192
1.1557464780
1.1559025825
1.1559996372
1.1560285428
1.1559846519
1.1558707411
1.1557008941
1.1555044547
1.1553263924
1.1552185181
1.1580407229
1.2431069729
1.2474562084
1.2464249374
1.2444607487
1.2417483662
1.2385360127
1.2350989914
1.2317029377
1.2285816627
1.2259239839
1.2238667998
1.2224936777
1.2218348192
1.2218715256
1.2225454880
1.2237709874
1.2254490862
1.2274786785
1.2297644766
1.2322228363
1.2347824341
1.2373834031
1.2399766065
1.2425202782
1.2449774425
1.2473148973
1.2495008480
1.2515039181
1.2532938098
1.2548409799
1.2561174752
1.2570989090
1.2577652294
1.2581019921
1.2571459967
1.1522338860
1.1519652983
1.1520415173
1.1521899533
1.1524028026
1.1526689669
1.1529746168
1.1533039472
1.1536399820
1.1539652401
1.1542625139
1.1545154301
1.1547088927
1.1548298143
1.1548679656
1.1548176969
1.1546812773
1.1544739296
1.1542298726
1.1540047724
1.1538663783
1.1564642094
1.2386982921
1.2430833661
1.2421964425
1.2405109074
1.2381927114
1.2354631745
1.2325645381
1.2297279541
1.2271573755
1.2250207997
1.2234448552
1.2225120213
1.2222575251
1.2226707438
1.2237021171
1.2252739865
1.2272943540
1.2296677390
1.2323031165
1.2351197843
1.2380479084
1.2410275564
1.2440079762
1.2469442173
1.2497946009
1.2525198729
1.2550810520
1.2574387042
1.2595539796
1.2613887351
1.2629068209
1.2640765435
1.2648719132
1.2652742904
1.2643164776
1.1504606963
1.1502289481
1.1503251949
1.1505121540
1.1507791916
1.1511113858
1.1514905231
1.1518963377
1.1523076625
1.1527033635
1.1530632717
1.1533686922
1.1536026939
1.1537506028
1.1538005642
1.1537451457
1.1535850117
1.1533353311
1.1530347059
1.1527511962
1.1525735183
1.1549352643
1.2335850475
1.2379599694
1.2372191264
1.2358145488
1.2338927845
1.2316490124
1.2292950167
1.2270315698
1.2250371053
1.2234618091
1.2224226189
1.2219988688
1.2222267367
1.2230986498
1.2245688509
1.2265635912
1.2289947767
1.2317706257
1.2348033638
1.2380148849
1.2413369664
1.2447100576
1.2480824854
1.2514070429
1.2546385071
1.2577329524
1.2606458103
1.2633313748
1.2657441522
1.2678393575
1.2695745510
1.2709124656
1.2718226152
1.2722832019
1.2714139313
1.1488273184
1.1485881170
1.1487041118
1.1489291492
1.1492499792
1.1496481197
1.1501012415
1.1505848518
1.1510737556
1.1515432430
1.1519701714
1.1523334149
1.1526139874
1.1527952534
1.1528631107
1.1528073329
1.1526254542
1.1523306868
1.1519646758
1.1516093145
1.1513809024
1.1534957008
1.2277395004
1.2320574633
1.2314550263
1.2303169460
1.2287736003
1.2269991648
1.2251814294
1.2234975566
1.2221059233
1.2211415151
1.2207105562
1.2208848399
1.2216948719
1.2231287755
1.2251378150
1.2276467488
1.2305676359
1.2338101869
1.2372889044
1.2409281891
1.2446619678
1.2484320567
1.2521871773
1.2558794828
1.2594620946
1.2628885356
1.2661109769
1.2690799192
1.2717457660
1.2740596105
1.2759751098
1.2774515414
1.2784556544
1.2789637246
1.2782637586
1.1473468455
1.1470568798
1.1471921829
1.1474545992
1.1478285916
1.1482925285
1.1488203834
1.1493838039
1.1499538294
1.1505023099
1.1510031388
1.1514326425
1.1517695305
1.1519947816
1.1520913294
1.1520449306
1.1518479856
1.1515089122
1.1510697026
1.1506266788
1.1503322202
1.1521897701
1.2211584524
1.2253751366
1.2248917618
1.2239850274
1.2227772842
1.2214321575
1.2201244523
1.2190175641
1.2182565026
1.2179630668
1.2182296969
1.2191133455
1.2206291334
1.2227508027
1.2254178166
1.2285467608
1.2320454880
1.2358229118
1.2397951313
1.2438895040
1.2480433551
1.2522016689
1.2563157356
1.2603395399
1.2642272424
1.2679326451
1.2714075803
1.2746016992
1.2774641772
1.2799447213
1.2819955917
1.2835747746
1.2846479888
1.2851908004
1.2847237390
1.1460214697
1.1456412627
1.1457953591
1.1460943556
1.1465208522
1.1470506011
1.1476544318
1.1483006252
1.1489568229
1.1495916480
1.1501760883
1.1506838337
1.1510910544
1.1513759241
1.1515176675
1.1514966565
1.1512976852
1.1509203909
1.1504023743
1.1498530861
1.1494714394
1.1510615764
1.2138755816
1.2179526545
1.2175555771
1.2168213135
1.2158780666
1.2148952825
1.2140507895
1.2135074528
1.2134049291
1.2138530652
1.2149249861
1.2166520951
1.2190208982
1.2219777036
1.2254392614
1.2293061436
1.2334772515
1.2378586166
1.2423678661
1.2469366278
1.2515078910
1.2560326819
1.2604680656
1.2647732562
1.2689069105
1.2728264951
1.2764867687
1.2798396234
1.2828358534
1.2854263614
1.2875642862
1.2892082222
1.2903243462
1.2908885447
1.2906966147
1.1448445369
1.1443409573
1.1445132976
1.1448480432
1.1453264264
1.1459222146
1.1466037610
1.1473365957
1.1480854476
1.1488160307
1.1494965768
1.1500981306
1.1505941671
1.1509597212
1.1511696447
1.1511975465
1.1510177844
1.1506159462
1.1500175996
1.1493403042
1.1488412764
1.1501533873
1.2059807164
1.2098892611
1.2095311604
1.2088849611
1.2081049269
1.2073886979
1.2069381675
1.2069323660
1.2075149092
1.2087839504
1.2107849944
1.2135094940
1.2168984653
1.2208548210
1.2252598177
1.2299893215
1.2349284927
1.2399789439
1.2450607054
1.2501121495
1.2550854461
1.2599417548
1.2646481856
1.2691734178
1.2734846243
1.2775465943
1.2813202870
1.2847627188
1.2878287822
1.2904726965
1.2926502617
1.2943221100
1.2954559662
1.2960287794
1.2961321833
1.1438030927
1.1431512807
1.1433412644
1.1437108484
1.1442404388
1.1449025221
1.1456637423
1.1464876157
1.1473365809
1.1481739052
1.1489653617
1.1496794938
1.1502870920
1.1507599179
1.1510680209
1.1511770820
1.1510481045
1.1506461479
1.1499732583
1.1491433474
1.1484824931
1.1495046475
1.1976405530
1.2013639329
1.2009825192
1.2003144679
1.1995670478
1.1989937472
1.1988458627
1.1993382064
1.2006285562
1.2028023698
1.2058663771
1.2097542049
1.2143413493
1.2194690845
1.2249691521
1.2306837093
1.2364797663
1.2422538625
1.2479305039
1.2534586090
1.2588043615
1.2639443062
1.2688607531
1.2735366375
1.2779518805
1.2820821461
1.2858975158
1.2893624877
1.2924379063
1.2950827757
1.2972567158
1.2989232737
1.3000523687
1.3006224469
1.3010215704
1.1428807000
1.1420652683
1.1422721430
1.1426753588
1.1432550607
1.1439832081
1.1448255864
1.1457445610
1.1467010686
1.1476565904
1.1485749677
1.1494226409
1.1501680152
1.1507797913
1.1512232205
1.1514554053
1.1514214497
1.1510586378
1.1503294296
1.1493210057
1.1484308353
1.1491483651
1.1891043995
1.1926400224
1.1921588922
1.1913373586
1.1904695418
1.1898955820
1.1899436246
1.1908849460
1.1929012499
1.1960624835
1.2003229649
1.2055383156
1.2114969127
1.2179594103
1.2246939916
1.2315006023
1.2382245494
1.2447577673
1.2510325826
1.2570135280
1.2626867527
1.2680502762
1.2731072299
1.2778596834
1.2823042877
1.2864306199
1.2902201243
1.2936463796
1.2966772697
1.2992773338
1.3014105371
1.3030436918
1.3041491545
1.3047070279
1.3053864226
1.1420601932
1.1410756767
1.1412983320
1.1417332486
1.1423608705
1.1431533996
1.1440766743
1.1450928970
1.1461624898
1.1472460880
1.1483064879
1.1493088635
1.1502200527
1.1510065293
1.1516295099
1.1520378121
1.1521591381
1.1518959193
1.1511503122
1.1499418481
1.1487172802
1.1491104034
1.1806766570
1.1840364562
1.1833697461
1.1822546712
1.1811115823
1.1803961006
1.1805378524
1.1818821185
1.1846410723
1.1888638527
1.1944377485
1.2011209099
1.2085948761
1.2165229072
1.2245975716
1.2325696923
1.2402605861
1.2475591626
1.2544099149
1.2607988770
1.2667386581
1.2722550209
1.2773773362
1.2821311513
1.2865330566
1.2905886800
1.2942921406
1.2976268122
1.3005679138
1.3030855942
1.3051481352
1.3067255316
1.3077925025
1.3083307586
1.3092636309
1.1413260735
1.1401766609
1.1404132978
1.1408765652
1.1415477000
1.1423998534
1.1433998022
1.1445106288
1.1456934008
1.1469091752
1.1481211195
1.1492947456
1.1503971934
1.1513949332
1.1522476660
1.1528983714
1.1532583541
1.1531901299
1.1525113144
1.1511061524
1.1493840463
1.1494235075
1.1725845339
1.1757953644
1.1748773813
1.1733706334
1.1718548794
1.1709161624
1.1710988637
1.1728306202
1.1763546821
1.1816928264
1.1886542651
1.1968871643
1.2059544261
1.2154119113
1.2248692219
1.2340238836
1.2426722986
1.2507025266
1.2580757303
1.2648051466
1.2709358192
1.2765266763
1.2816376376
1.2863208145
1.2906146576
1.2945417709
1.2981091897
1.3013098999
1.3041260337
1.3065328670
1.3085025488
1.3100078703
1.3110256265
1.3115389526
1.3126912668
1.1406677143
1.1393664097
1.1396141449
1.1401001344
1.1408066951
1.1417083553
1.1427734005
1.1439665326
1.1452503921
1.1465876459
1.1479434656
1.1492860236
1.1505861795
1.1518155022
1.1529395052
1.1539051589
1.1546187410
1.1549101789
1.1544953856
1.1530217431
1.1506065646
1.1502441164
1.1644503548
1.1675621373
1.1666053914
1.1648837467
1.1631300123
1.1620627235
1.1623504841
1.1645098118
1.1688178251
1.1752707204
1.1836024365
1.1933550744
1.2039763474
1.2149161191
1.2257005733
1.2359729011
1.2455043207
1.2541835012
1.2619913447
1.2689721644
1.2752073403
1.2807922030
1.2858193841
1.2903686622
1.2945005495
1.2982541530
1.3016485824
1.3046854517
1.3073528220
1.3096302293
1.3114929842
1.3129161246
1.3138781327
1.3143633238
1.3156970841
1.1400842180
1.1386516208
1.1389063593
1.1394068129
1.1401362486
1.1410703566
1.1421786012
1.1434268349
1.1447785946
1.1461972378
1.1476488690
1.1491033395
1.1505350759
1.1519232041
1.1532475750
1.1544804734
1.1555693011
1.1563999436
1.1567303437
1.1561087735
1.1540736564
1.1532219083
1.1525122669
1.1556550263
1.1578008061
1.1573288339
1.1560130798
1.1551182669
1.1556146602
1.1581834279
1.1631717571
1.1705747211
1.1800738436
1.1911273680
1.2030860582
1.2153051136
1.2272319317
1.2384555649
1.2487204759
1.2579146279
1.2660381991
1.2731666250
1.2794177014
1.2849228343
1.2898064327
1.2941745076
1.2981078798
1.3016602863
1.3048611236
1.3077190532
1.3102267429
1.3123669480
1.3141173571
1.3154546883
1.3163587252
1.3168147268
1.3182902180
1.1395899905
1.1380528389
1.1383100205
1.1388155595
1.1395531380
1.1404987241
1.1416215855
1.1428866089
1.1442548659
1.1456849165
1.1471346751
1.1485601184
1.1499122603
1.1511303912
1.1521240622
1.1527379292
1.1526822394
1.1513893540
1.1477233763
1.1393923855
1.1218613418
1.0880056045
1.0609131679
1.1109089228
1.1862154755
1.1734524888
1.1666096934
1.1610681809
1.1567531547
1.1540764463
1.1535883399
1.1557542801
1.1607932992
1.1686031142
1.1787743552
1.1906735376
1.2035587908
1.2166960117
1.2294557938
1.2413713419
1.2521563601
1.2616933261
1.2699968598
1.2771687549
1.2833585356
1.2887290800
1.2934321463
1.2975958965
1.3013178633
1.3046633826
1.3076697003
1.3103506456
1.3127021037
1.3147090596
1.3163508984
1.3176055690
1.3184538713
1.3188818393
1.3204589246
1.1392170328
1.1376066823
1.1378629180
1.1383665794
1.1391014152
1.1400432023
1.1411604890
1.1424167329
1.1437703269
1.1451754519
1.1465837265
1.1479423745
1.1491911355
1.1502567419
1.1510378945
1.1513793684
1.1510274235
1.1495469152
1.1461837338
1.1396621569
1.1280168515
1.1092977845
1.0661925953
1.1149019093
1.1581670113
1.1616385357
1.1612897062
1.1588226231
1.1558595918
1.1536903954
1.1533570304
1.1555976336
1.1607708696
1.1688323049
1.1793800635
1.1917573483
1.2051793775
1.2188582127
1.2321111444
1.2444289791
1.2555000576
1.2652007286
1.2735552824
1.2806846740
1.2867619293
1.2919732187
1.2964902463
1.3004570614
1.3039829064
1.3071409371
1.3099735180
1.3124977634
1.3147115536
1.3166013443
1.3181477704
1.3193297742
1.3201290498
1.3205323467
1.3221710606
1.1390074391
1.1373584105
1.1376122505
1.1381110570
1.1388385269
1.1397701923
1.1408740433
1.1421126930
1.1434431794
1.1448178158
1.1461862773
1.1474942285
1.1486816371
1.1496805028
1.1504052127
1.1507374004
1.1505024091
1.1494245100
1.1470607967
1.1427216707
1.1354303050
1.1240176768
1.0984613189
1.1246800890
1.1534199347
1.1600143706
1.1612716335
1.1598348717
1.1574621855
1.1555686234
1.1553251759
1.1575776617
1.1627579585
1.1708615710
1.1815005491
1.1940142167
1.2076012889
1.2214491237
1.2348490847
1.2472710217
1.2583907328
1.2680820437
1.2763748950
1.2834004849
1.2893441872
1.2944042376
1.2987623663
1.3025704548
1.3059433677
1.3089577973
1.3116583798
1.3140637495
1.3161728039
1.3179729869
1.3194459962
1.3205717562
1.3213329048
1.3217169592
1.3233775792
1.1390013190
1.1373499366
1.1376015422
1.1380957560
1.1388161245
1.1397379058
1.1408286968
1.1420507629
1.1433608234
1.1447110951
1.1460519662
1.1473312191
1.1484936725
1.1494815721
1.1502288018
1.1506526388
1.1506421577
1.1500313761
1.1485596269
1.1458197878
1.1411936289
1.1336810737
1.1174590842
1.1319575872
1.1520005998
1.1600827554
1.1627937773
1.1623615481
1.1605632274
1.1589324608
1.1587579214
1.1609748989
1.1660711396
1.1740692367
1.1845892488
1.1969701930
1.2104089318
1.2240930472
1.2373180075
1.2495605410
1.2605034326
1.2700262882
1.2781627443
1.2850453039
1.2908592880
1.2958021231
1.3000541492
1.3037658894
1.3070510196
1.3099851320
1.3126121884
1.3149506369
1.3169995656
1.3187471003
1.3201759831
1.3212672592
1.3220046743
1.3223766411
1.3240194602
1.1392288765
1.1376120089
1.1378623768
1.1383538830
1.1390697098
1.1399846127
1.1410656354
1.1422746607
1.1435682903
1.1448991217
1.1462189047
1.1474781887
1.1486268118
1.1496159144
1.1503943100
1.1509039910
1.1510747385
1.1508056536
1.1499365431
1.1482055444
1.1451770616
1.1400750997
1.1292359216
1.1376259232
1.1523059836
1.1608187257
1.1646409568
1.1651481712
1.1639599514
1.1626610972
1.1626258095
1.1648570774
1.1698811703
1.1777321924
1.1880271791
1.2001027910
1.2131639518
1.2264209342
1.2392032936
1.2510242346
1.2615958309
1.2708147458
1.2787189746
1.2854353762
1.2911380814
1.2960114736
1.3002233100
1.3039135328
1.3071876797
1.3101154622
1.3127371003
1.3150690654
1.3171097644
1.3188476777
1.3202665655
1.3213487385
1.3220792216
1.3224474568
1.3240325081
1.1397074379
1.1381612991
1.1384115495
1.1389024316
1.1396164368
1.1405274002
1.1416013599
1.1427993330
1.1440773567
1.1453879689
1.1466836625
1.1479167324
1.1490401151
1.1500100820
1.1507834744
1.1513148131
1.1515536752
1.1514299981
1.1508306712
1.1495627764
1.1472856407
1.1433888846
1.1351811425
1.1410664322
1.1532674983
1.1619062186
1.1664257274
1.1676273570
1.1669694342
1.1660293953
1.1662102854
1.1685385648
1.1735473054
1.1812618434
1.1912829661
1.2029438742
1.2154674488
1.2281063501
1.2402488103
1.2514679962
1.2615230725
1.2703374488