<VTKFile type="UnstructuredGrid" version="0.1">
	<UnstructuredGrid>
		<Piece NumberOfPoints="13548" NumberOfCells="3387">
			<CellData>
				<DataArray type="Int32" Name="ghost" NumberOfComponents="1" Format="ascii">
1
1
1
1
1
1
1
1
1
1
1
1
1
1
1
1
1
1
1
1
1
1
1
1
1
1
1
1
1
1
1
1
1
1
1
1
1
1
1
1
1
1
1
1
1
1
1
1
1
1
1
1
1
1
1
1
1
1
0
0
0
0
0
0
0
0
0
0
0
0
0
0
0
0
0
0
0
0
1
1
0
0
0
0
0
0
0
0
0
0
0
0
0
0
0
0
0
0
0
0
0
0
0
0
0
0
0
0
0
0
0
0
0
1
1
0
0
0
0
0
0
0
0
0
0
0
0
0
0
0
0
0
0
0
0
1
1
0
0
0
0
0
0
0
0
0
0
0
0
0
0
0
0
0
0
0
0
0
0
0
0
0
0
0
0
0
0
0
0
0
1
1
0
0
0
0
0
0
0
0
0
0
0
0
0
0
0
0
0
0
0
0
1
1
0
0
0
0
0
0
0
0
0
0
0
0
0
0
0
0
0
0
0
0
0
0
0
0
0
0
0
0
0
0
0
0
0
1
1
0
0
0
0
0
0
0
0
0
0
0
0
0
0
0
0
0
0
0
0
1
1
0
0
0
0
0
0
0
0
0
0
0
0
0
0
0
0
0
0
0
0
0
0
0
0
0
0
0
0
0
0
0
0
0
1
1
0
0
0
0
0
0
0
0
0
0
0
0
0
0
0
0
0
0
0
0
1
1
0
0
0
0
0
0
0
0
0
0
0
0
0
0
0
0
0
0
0
0
0
0
0
0
0
0
0
0
0
0
0
0
0
1
1
0
0
0
0
0
0
0
0
0
0
0
0
0
0
0
0
0
0
0
0
1
1
0
0
0
0
0
0
0
0
0
0
0
0
0
0
0
0
0
0
0
0
0
0
0
0
0
0
0
0
0
0
0
0
0
1
1
0
0
0
0
0
0
0
0
0
0
0
0
0
0
0
0
0
0
0
0
1
1
0
0
0
0
0
0
0
0
0
0
0
0
0
0
0
0
0
0
0
0
0
0
0
0
0
0
0
0
0
0
0
0
0
1
1
0
0
0
0
0
0
0
0
0
0
0
0
0
0
0
0
0
0
0
0
1
1
0
0
0
0
0
0
0
0
0
0
0
0
0
0
0
0
0
0
0
0
0
0
0
0
0
0
0
0
0
0
0
0
0
1
1
0
0
0
0
0
0
0
0
0
0
0
0
0
0
0
0
0
0
0
0
1
1
0
0
0
0
0
0
0
0
0
0
0
0
0
0
0
0
0
0
0
0
0
0
0
0
0
0
0
0
0
0
0
0
0
1
1
0
0
0
0
0
0
0
0
0
0
0
0
0
0
0
0
0
0
0
0
1
1
0
0
0
0
0
0
0
0
0
0
0
0
0
0
0
0
0
0
0
0
0
0
0
0
0
0
0
0
0
0
0
0
0
1
1
0
0
0
0
0
0
0
0
0
0
0
0
0
0
0
0
0
0
0
0
1
1
0
0
0
0
0
0
0
0
0
0
0
0
0
0
0
0
0
0
0
0
0
0
0
0
0
0
0
0
0
0
0
0
0
1
1
0
0
0
0
0
0
0
0
0
0
0
0
0
0
0
0
0
0
0
0
1
1
0
0
0
0
0
0
0
0
0
0
0
0
0
0
0
0
0
0
0
0
0
0
0
0
0
0
0
0
0
0
0
0
0
1
1
0
0
0
0
0
0
0
0
0
0
0
0
0
0
0
0
0
0
0
0
1
1
0
0
0
0
0
0
0
0
0
0
0
0
0
0
0
0
0
0
0
0
0
0
0
0
0
0
0
0
0
0
0
0
0
1
1
0
0
0
0
0
0
0
0
0
0
0
0
0
0
0
0
0
0
0
0
1
1
0
0
0
0
0
0
0
0
0
0
0
0
0
0
0
0
0
0
0
0
0
0
0
0
0
0
0
0
0
0
0
0
0
1
1
0
0
0
0
0
0
0
0
0
0
0
0
0
0
0
0
0
0
0
0
1
1
0
0
0
0
0
0
0
0
0
0
0
0
0
0
0
0
0
0
0
0
0
0
0
0
0
0
0
0
0
0
0
0
0
1
1
0
0
0
0
0
0
0
0
0
0
0
0
0
0
0
0
0
0
0
0
1
1
0
0
0
0
0
0
0
0
0
0
0
0
0
0
0
0
0
0
0
0
0
0
0
0
0
0
0
0
0
0
0
0
0
1
1
0
0
0
0
0
0
0
0
0
0
0
0
0
0
0
0
0
0
0
0
1
1
0
0
0
0
0
0
0
0
0
0
0
0
0
0
0
0
0
0
0
0
0
0
0
0
0
0
0
0
0
0
0
0
0
1
1
0
0
0
0
0
0
0
0
0
0
0
0
0
0
0
0
0
0
0
0
1
1
0
0
0
0
0
0
0
0
0
0
0
0
0
0
0
0
0
0
0
0
0
0
0
0
0
0
0
0
0
0
0
0
0
1
1
0
0
0
0
0
0
0
0
0
0
0
0
0
0
0
0
0
0
0
0
1
1
0
0
0
0
0
0
0
0
0
0
0
0
0
0
0
0
0
0
0
0
0
0
0
0
0
0
0
0
0
0
0
0
0
1
1
0
0
0
0
0
0
0
0
0
0
0
0
0
0
0
0
0
0
0
0
1
1
0
0
0
0
0
0
0
0
0
0
0
0
0
0
0
0
0
0
0
0
0
0
0
0
0
0
0
0
0
0
0
0
0
1
1
0
0
0
0
0
0
0
0
0
0
0
0
0
0
0
0
0
0
0
0
1
1
0
0
0
0
0
0
0
0
0
0
0
0
0
0
0
0
0
0
0
0
0
0
0
0
0
0
0
0
0
0
0
0
0
1
1
0
0
0
0
0
0
0
0
0
0
0
0
0
0
0
0
0
0
0
0
1
1
0
0
0
0
0
0
0
0
0
0
0
0
0
0
0
0
0
0
0
0
0
0
0
0
0
0
0
0
0
0
0
0
0
1
1
0
0
0
0
0
0
0
0
0
0
0
0
0
0
0
0
0
0
0
0
1
1
0
0
0
0
0
0
0
0
0
0
0
0
0
0
0
0
0
0
0
0
0
0
0
0
0
0
0
0
0
0
0
0
0
1
1
0
0
0
0
0
0
0
0
0
0
0
0
0
0
0
0
0
0
0
0
1
1
0
0
0
0
0
0
0
0
0
0
0
0
0
0
0
0
0
0
0
0
0
0
0
0
0
0
0
0
0
0
0
0
0
1
1
0
0
0
0
0
0
0
0
0
0
0
0
0
0
0
0
0
0
0
0
0
1
1
0
0
0
0
0
0
0
0
0
0
0
0
0
0
0
0
0
0
0
0
0
0
0
0
0
0
0
0
0
0
0
0
0
0
1
1
0
0
0
0
0
0
0
0
0
0
0
0
0
0
0
0
0
0
0
0
0
0
0
0
0
0
0
0
0
0
0
0
0
0
0
0
0
0
0
0
0
0
0
0
0
0
0
0
0
0
0
0
0
0
0
0
0
1
1
0
0
0
0
0
0
0
0
0
0
0
0
0
0
0
0
0
0
0
0
0
0
0
0
0
0
0
0
0
0
0
0
0
0
0
0
0
0
0
0
0
0
0
0
0
0
0
0
0
0
0
0
0
0
0
0
0
1
1
0
0
0
0
0
0
0
0
0
0
0
0
0
0
0
0
0
0
0
0
0
0
0
0
0
0
0
0
0
0
0
0
0
0
0
0
0
0
0
0
0
0
0
0
0
0
0
0
0
0
0
0
0
0
0
0
0
1
1
0
0
0
0
0
0
0
0
0
0
0
0
0
0
0
0
0
0
0
0
0
0
0
0
0
0
0
0
0
0
0
0
0
0
0
0
0
0
0
0
0
0
0
0
0
0
0
0
0
0
0
0
0
0
0
0
0
1
1
0
0
0
0
0
0
0
0
0
0
0
0
0
0
0
0
0
0
0
0
0
0
0
0
0
0
0
0
0
0
0
0
0
0
0
0
0
0
0
0
0
0
0
0
0
0
0
0
0
0
0
0
0
0
0
0
0
1
1
0
0
0
0
0
0
0
0
0
0
0
0
0
0
0
0
0
0
0
0
0
0
0
0
0
0
0
0
0
0
0
0
0
0
0
0
0
0
0
0
0
0
0
0
0
0
0
0
0
0
0
0
0
0
0
0
0
1
1
0
0
0
0
0
0
0
0
0
0
0
0
0
0
0
0
0
0
0
0
0
0
0
0
0
0
0
0
0
0
0
0
0
0
0
0
0
0
0
0
0
0
0
0
0
0
0
0
0
0
0
0
0
0
0
0
0
1
1
0
0
0
0
0
0
0
0
0
0
0
0
0
0
0
0
0
0
0
0
0
0
0
0
0
0
0
0
0
0
0
0
0
0
0
0
0
0
0
0
0
0
0
0
0
0
0
0
0
0
0
0
0
0
0
0
0
1
1
0
0
0
0
0
0
0
0
0
0
0
0
0
0
0
0
0
0
0
0
0
0
0
0
0
0
0
0
0
0
0
0
0
0
0
0
0
0
0
0
0
0
0
0
0
0
0
0
0
0
0
0
0
0
0
0
0
1
1
0
0
0
0
0
0
0
0
0
0
0
0
0
0
0
0
0
0
0
0
0
0
0
0
0
0
0
0
0
0
0
0
0
0
0
0
0
0
0
0
0
0
0
0
0
0
0
0
0
0
0
0
0
0
0
0
0
1
1
0
0
0
0
0
0
0
0
0
0
0
0
0
0
0
0
0
0
0
0
0
1
1
0
0
0
0
0
0
0
0
0
0
0
0
0
0
0
0
0
0
0
0
0
0
0
0
0
0
0
0
0
0
0
0
0
0
1
1
0
0
0
0
0
0
0
0
0
0
0
0
0
0
0
0
0
0
0
0
1
1
0
0
0
0
0
0
0
0
0
0
0
0
0
0
0
0
0
0
0
0
0
0
0
0
0
0
0
0
0
0
0
0
0
1
1
0
0
0
0
0
0
0
0
0
0
0
0
0
0
0
0
0
0
0
0
1
1
0
0
0
0
0
0
0
0
0
0
0
0
0
0
0
0
0
0
0
0
0
0
0
0
0
0
0
0
0
0
0
0
0
1
1
0
0
0
0
0
0
0
0
0
0
0
0
0
0
0
0
0
0
0
0
1
1
0
0
0
0
0
0
0
0
0
0
0
0
0
0
0
0
0
0
0
0
0
0
0
0
0
0
0
0
0
0
0
0
0
1
1
0
0
0
0
0
0
0
0
0
0
0
0
0
0
0
0
0
0
0
0
1
1
0
0
0
0
0
0
0
0
0
0
0
0
0
0
0
0
0
0
0
0
0
0
0
0
0
0
0
0
0
0
0
0
0
1
1
0
0
0
0
0
0
0
0
0
0
0
0
0
0
0
0
0
0
0
0
1
1
0
0
0
0
0
0
0
0
0
0
0
0
0
0
0
0
0
0
0
0
0
0
0
0
0
0
0
0
0
0
0
0
0
1
1
0
0
0
0
0
0
0
0
0
0
0
0
0
0
0
0
0
0
0
0
1
1
0
0
0
0
0
0
0
0
0
0
0
0
0
0
0
0
0
0
0
0
0
0
0
0
0
0
0
0
0
0
0
0
0
1
1
0
0
0
0
0
0
0
0
0
0
0
0
0
0
0
0
0
0
0
0
1
1
0
0
0
0
0
0
0
0
0
0
0
0
0
0
0
0
0
0
0
0
0
0
0
0
0
0
0
0
0
0
0
0
0
1
1
0
0
0
0
0
0
0
0
0
0
0
0
0
0
0
0
0
0
0
0
1
1
0
0
0
0
0
0
0
0
0
0
0
0
0
0
0
0
0
0
0
0
0
0
0
0
0
0
0
0
0
0
0
0
0
1
1
0
0
0
0
0
0
0
0
0
0
0
0
0
0
0
0
0
0
0
0
1
1
0
0
0
0
0
0
0
0
0
0
0
0
0
0
0
0
0
0
0
0
0
0
0
0
0
0
0
0
0
0
0
0
0
1
1
0
0
0
0
0
0
0
0
0
0
0
0
0
0
0
0
0
0
0
0
1
1
0
0
0
0
0
0
0
0
0
0
0
0
0
0
0
0
0
0
0
0
0
0
0
0
0
0
0
0
0
0
0
0
0
1
1
0
0
0
0
0
0
0
0
0
0
0
0
0
0
0
0
0
0
0
0
1
1
0
0
0
0
0
0
0
0
0
0
0
0
0
0
0
0
0
0
0
0
0
0
0
0
0
0
0
0
0
0
0
0
0
1
1
0
0
0
0
0
0
0
0
0
0
0
0
0
0
0
0
0
0
0
0
1
1
0
0
0
0
0
0
0
0
0
0
0
0
0
0
0
0
0
0
0
0
0
0
0
0
0
0
0
0
0
0
0
0
0
1
1
0
0
0
0
0
0
0
0
0
0
0
0
0
0
0
0
0
0
0
0
1
1
0
0
0
0
0
0
0
0
0
0
0
0
0
0
0
0
0
0
0
0
0
0
0
0
0
0
0
0
0
0
0
0
0
1
1
0
0
0
0
0
0
0
0
0
0
0
0
0
0
0
0
0
0
0
0
1
1
0
0
0
0
0
0
0
0
0
0
0
0
0
0
0
0
0
0
0
0
0
0
0
0
0
0
0
0
0
0
0
0
0
1
1
0
0
0
0
0
0
0
0
0
0
0
0
0
0
0
0
0
0
0
0
1
1
0
0
0
0
0
0
0
0
0
0
0
0
0
0
0
0
0
0
0
0
0
0
0
0
0
0
0
0
0
0
0
0
0
1
1
0
0
0
0
0
0
0
0
0
0
0
0
0
0
0
0
0
0
0
0
1
1
0
0
0
0
0
0
0
0
0
0
0
0
0
0
0
0
0
0
0
0
0
0
0
0
0
0
0
0
0
0
0
0
0
1
1
0
0
0
0
0
0
0
0
0
0
0
0
0
0
0
0
0
0
0
0
1
1
0
0
0
0
0
0
0
0
0
0
0
0
0
0
0
0
0
0
0
0
0
0
0
0
0
0
0
0
0
0
0
0
0
1
1
0
0
0
0
0
0
0
0
0
0
0
0
0
0
0
0
0
0
0
0
1
1
0
0
0
0
0
0
0
0
0
0
0
0
0
0
0
0
0
0
0
0
0
0
0
0
0
0
0
0
0
0
0
0
0
1
1
0
0
0
0
0
0
0
0
0
0
0
0
0
0
0
0
0
0
0
0
1
1
0
0
0
0
0
0
0
0
0
0
0
0
0
0
0
0
0
0
0
0
0
0
0
0
0
0
0
0
0
0
0
0
0
1
1
0
0
0
0
0
0
0
0
0
0
0
0
0
0
0
0
0
0
0
0
1
1
0
0
0
0
0
0
0
0
0
0
0
0
0
0
0
0
0
0
0
0
0
0
0
0
0
0
0
0
0
0
0
0
0
1
1
0
0
0
0
0
0
0
0
0
0
0
0
0
0
0
0
0
0
0
0
1
1
0
0
0
0
0
0
0
0
0
0
0
0
0
0
0
0
0
0
0
0
0
0
0
0
0
0
0
0
0
0
0
0
0
1
1
1
1
1
1
1
1
1
1
1
1
1
1
1
1
1
1
1
1
1
1
1
1
1
1
1
1
1
1
1
1
1
1
1
1
1
1
1
1
1
1
1
1
1
1
1
1
1
1
1
1
1
1
1
1
1
1
				</DataArray>
				<DataArray type="Float64" Name="h" NumberOfComponents="1" Format="ascii">
1.0365176705
1.0356736517
1.0360912071
1.0369170979
1.0381331039
1.0397118463
1.0416168581
1.0438031644
1.0462178500
1.0488009820
1.0514872554
1.0542078556
1.0568924694
1.0594717396
1.0618797611
1.0640561802
1.0659480950
1.0675116342
1.0687125661
1.0695261302
1.0699366602
1.0699366602
1.3065835499
1.3079054567
1.3080736157
1.3084046724
1.3088868780
1.3095030121
1.3102299864
1.3110381010
1.3118924024
1.3127535249
1.3135793571
1.3143279070
1.3149596461
1.3154401464
1.3157418510
1.3158448875
1.3157377197
1.3154160208
1.3148812577
1.3141396273
1.3131996018
1.3120704868
1.3107622477
1.3092849955
1.3076508055
1.3058773613
1.3039918005
1.3020362866
1.3000727644
1.2981845714
1.2964742628
1.2950546734
1.2940343614
1.2935001316
1.2935001316
1.0356736517
1.0349630215
1.0353984217
1.0362593586
1.0375263396
1.0391701792
1.0411521637
1.0434247443
1.0459322682
1.0486120309
1.0513960459
1.0542130223
1.0569904217
1.0596569431
1.0621450127
1.0643928376
1.0663462882
1.0679604425
1.0692001760
1.0700400280
1.0704638349
1.0699366602
1.3079054567
1.3092361805
1.3093450828
1.3095613727
1.3098803476
1.3102943261
1.3107912460
1.3113528494
1.3119550831
1.3125682313
1.3131581279
1.3136888507
1.3141251641
1.3144354238
1.3145937278
1.3145811986
1.3143871004
1.3140081339
1.3134473901
1.3127135447
1.3118185016
1.3107758610
1.3096004082
1.3083069456
1.3069110923
1.3054315744
1.3038924522
1.3023270061
1.3007812151
1.2993150096
1.2980011738
1.2969193337
1.2961459797
1.2957423471
1.2935001316
1.0361940940
1.0355059757
1.0359399899
1.0367981016
1.0380607166
1.0396985160
1.0416726422
1.0439354182
1.0464311126
1.0490970264
1.0518652913
1.0546648702
1.0574236225
1.0600707829
1.0625394288
1.0647685021
1.0667046544
1.0683037474
1.0695313975
1.0703627874
1.0707822341
1.0702652768
1.3079116129
1.3092005256
1.3093000134
1.3094981649
1.3097915981
1.3101744703
1.3106369132
1.3111630058
1.3117309583
1.3123130509
1.3128766892
1.3133870179
1.3138093469
1.3141120852
1.3142689665
1.3142604194
1.3140747773
1.3137076588
1.3131609945
1.3124422847
1.3115622917
1.3105335477
1.3093698852
1.3080853045
1.3066948164
1.3052167849
1.3036752086
1.3021036598
1.3005487998
1.2990716231
1.2977462888
1.2966539611
1.2958726127
1.2954646552
1.2932110252
1.0372361747
1.0365920709
1.0370232594
1.0378756147
1.0391293437
1.0407548684
1.0427130577
1.0449559997
1.0474278354
1.0500659107
1.0528026309
1.0555674987
1.0582891915
1.0608980208
1.0633283511
1.0655205576
1.0674227993
1.0689924388
1.0701965034
1.0710113991
1.0714223541
1.0709250369
1.3079216772
1.3091288128
1.3092097482
1.3093721135
1.3096150570
1.3099362764
1.3103301573
1.3107853469
1.3112845216
1.3118039424
1.3123141926
1.3127826175
1.3131757018
1.3134620490
1.3136147425
1.3136128868
1.3134429973
1.3130985533
1.3125791714
1.3118899951
1.3110394871
1.3100380234
1.3088975108
1.3076303307
1.3062502694
1.3047749683
1.3032283109
1.3016444654
1.3000714653
1.2985724306
1.2972242492
1.2961111249
1.2953139458
1.2948974318
1.2926203014
1.0388018257
1.0382212012
1.0386480191
1.0394914799
1.0407315032
1.0423381451
1.0442719012
1.0464845634
1.0489201545
1.0515161751
1.0542055293
1.0569186072
1.0595853632
1.0621377329
1.0645119699
1.0666505061
1.0685036244
1.0700307727
1.0712009227
1.0719921564
1.0723909476
1.0719211309
1.3079306987
1.3090195202
1.3090733165
1.3091832357
1.3093519578
1.3095821643
1.3098742960
1.3102235885
1.3106192560
1.3110434882
1.3114717016
1.3118746916
1.3122209014
1.3124794347
1.3126225917
1.3126276477
1.3124785044
1.3121654979
1.3116847982
1.3110380035
1.3102300941
1.3092681678
1.3081611995
1.3069191099
1.3055538357
1.3040819414
1.3025271630
1.3009245931
1.2993243437
1.2977927126
1.2964106282
1.2952667546
1.2944462285
1.2940171148
1.2917031545
1.0408926221
1.0403919255
1.0408126796
1.0416438191
1.0428649049
1.0444455512
1.0463458310
1.0485172485
1.0509038075
1.0534433716
1.0560696684
1.0587144026
1.0613093106
1.0637884952
1.0660906404
1.0681607422
1.0699516610
1.0714253249
1.0725529866
1.0733146804
1.0736983198
1.0732615561
1.3079282045
1.3088667207
1.3088856604
1.3089280579
1.3090008430
1.3091127635
1.3092717427
1.3094813015
1.3097390422
1.3100349350
1.3103509122
1.3106625971
1.3109413682
1.3111573546
1.3112821542
1.3112908922
1.3111642002
1.3108883589
1.3104550047
1.3098610100
1.3091066709
1.3081946525
1.3071299599
1.3059191915
1.3045718086
1.3031029680
1.3015362645
1.2999080863
1.2982713544
1.2966965801
1.2952699697
1.2940859385
1.2932350431
1.2927895792
1.2904238905
1.0435081319
1.0430998538
1.0435126737
1.0443277226
1.0455241613
1.0470711356
1.0489283194
1.0510470369
1.0533714885
1.0558402352
1.0583882670
1.0609491169
1.0634568433
1.0658482328
1.0680648454
1.0700545876
1.0717731411
1.0731850699
1.0742640039
1.0749919855
1.0753583893
1.0749572688
1.3078954082
1.3086567545
1.3086343210
1.3085963500
1.3085544142
1.3085239806
1.3085214175
1.3085598005
1.3086466441
1.3087813632
1.3089540518
1.3091466318
1.3093345817
1.3094898215
1.3095835775
1.3095887316
1.3094821757
1.3092453577
1.3088643756
1.3083302346
1.3076373514
1.3067827942
1.3057665506
1.3045910383
1.3032626452
1.3017948415
1.3002111559
1.2985497084
1.2968669920
1.2952387369
1.2937575507
1.2925246995
1.2916370957
1.2911719374
1.2887381063
1.0466440699
1.0463358572
1.0467386833
1.0475335167
1.0486991223
1.0502042243
1.0520082238
1.0540624990
1.0563118049
1.0586958739
1.0611515153
1.0636146749
1.0660222827
1.0683142609
1.0704353519
1.0723365157
1.0739762487
1.0753216332
1.0763485011
1.0770407108
1.0773889141
1.0770226196
1.3078032859
1.3083658114
1.3082969660
1.3081685698
1.3079969074
1.3078043724
1.3076162296
1.3074558775
1.3073418432
1.3072843595
1.3072831911
1.3073280440
1.3073997963
1.3074731379
1.3075195026
1.3075096818
1.3074165752
1.3072161930
1.3068882156
1.3064167225
1.3057891063
1.3049957081
1.3040304849
1.3028908660
1.3015796420
1.3001084164
1.2985008366
1.2967972839
1.2950586260
1.2933667663
1.2918216749
1.2905323027
1.2896025394
1.2891148715
1.2865955157
1.0502901937
1.0500841281
1.0504747305
1.0512449160
1.0523731262
1.0538278131
1.0555683629
1.0575465948
1.0597083328
1.0619950933
1.0643461589
1.0667005096
1.0689984587
1.0711834001
1.0732033797
1.0750123143
1.0765712333
1.0778493342
1.0788241967
1.0794810438
1.0798113937
1.0794755621
1.3076094889
1.3079565244
1.3078379262
1.3076123067
1.3073004497
1.3069314675
1.3065394672
1.3061584021
1.3058184181
1.3055415440
1.3053384709
1.3052080720
1.3051379569
1.3051066993
1.3050867159
1.3050470810
1.3049566670
1.3047856360
1.3045065351
1.3040955924
1.3035321423
1.3027987695
1.3018824928
1.3007750661
1.2994753052
1.2979929310
1.2963520574
1.2945959840
1.2927908004
1.2910254590
1.2894080314
1.2880556427
1.2870793796
1.2865670472
1.2839450286
1.0544278328
1.0543199075
1.0546959419
1.0554368666
1.0565209658
1.0579167011
1.0595838619
1.0614752642
1.0635384704
1.0657175090
1.0679548441
1.0701930895
1.0723763525
1.0744516619
1.0763702600
1.0780886596
1.0795698656
1.0807845158
1.0817112237
1.0823358734
1.0826501906
1.0823372433
1.3072571044
1.3073766931
1.3072067933
1.3068806519
1.3064231358
1.3058695365
1.3052623069
1.3046456781
1.3040615026
1.3035441183
1.3031160355
1.3027864434
1.3025509104
1.3023930145
1.3022870210
1.3022008045
1.3020993470
1.3019467349
1.3017078488
1.3013503190
1.3008445640
1.3001645646
1.2992896886
1.2982055442
1.2969068311
1.2954016169
1.2937150549
1.2918941805
1.2900111973
1.2881628663
1.2864658116
1.2850453946
1.2840196395
1.2834812836
1.2807416681
1.0590279234
1.0590077951
1.0593669054
1.0600739946
1.0611074744
1.0624362563
1.0640211287
1.0658166299
1.0677728611
1.0698371590
1.0719558647
1.0740757285
1.0761448894
1.0781139451
1.0799369681
1.0815724429
1.0829845415
1.0841444403
1.0850308616
1.0856294211
1.0859311236
1.0856312255
1.3066764467
1.3065612857
1.3063402094
1.3059135841
1.3053098562
1.3045697584
1.3037432795
1.3028842427
1.3020458282
1.3012747213
1.3006057159
1.3000591175
1.2996394303
1.2993362082
1.2991263704
1.2989771235
1.2988497731
1.2987022287
1.2984913387
1.2981755918
1.2977158664
1.2970769547
1.2962301527
1.2951547704
1.2938415858
1.2922975713
1.2905497754
1.2886499735
1.2866774043
1.2847372364
1.2829547429
1.2814630878
1.2803864374
1.2798216230
1.2769543103
1.0640497058
1.0641008605
1.0644408305
1.0651098641
1.0660869198
1.0673419720
1.0688375804
1.0705308766
1.0723753832
1.0743225372
1.0763231547
1.0783284423
1.0802905651
1.0821633518
1.0839030704
1.0854693165
1.0868264325
1.0879450877
1.0888030608
1.0893845957
1.0896787533
1.0893814133
1.3057868836
1.3054346508
1.3051639057
1.3046396750
1.3038935266
1.3029708599
1.3019282482
1.3008281718
1.2997344113
1.2987056223
1.2977889059
1.2970160592
1.2964011178
1.2959402679
1.2956136507
1.2953881830
1.2952216441
1.2950656928
1.2948688964
1.2945802565
1.2941507589
1.2935357568
1.2926984352
1.2916120685
1.2902641341
1.2886614655
1.2868341854
1.2848400002
1.2827661039
1.2807264527
1.2788546544
1.2772907069
1.2761635748
1.2755728997
1.2725757513
1.0694396323
1.0695399936
1.0698589460
1.0704864591
1.0714025947
1.0725791675
1.0739814300
1.0755700726
1.0773029301
1.0791362376
1.0810256931
1.0829270162
1.0847960923
1.0865893481
1.0882643650
1.0897808136
1.0911021164
1.0921973656
1.0930423359
1.0936187001
1.0939120261
1.0936082695
1.3045022091
1.3039163373
1.3035983295
1.3029813500
1.3020998175
1.3010031596
1.2997536430
1.2984214267
1.2970799967
1.2957993105
1.2946384145
1.2936405220
1.2928293193
1.2922078199
1.2917595393
1.2914511469
1.2912368194
1.2910617923
1.2908661405
1.2905892023
1.2901720048
1.2895605930
1.2887104498
1.2875895617
1.2861832081
1.2844994683
1.2825730359
1.2804688871
1.2782830245
1.2761382936
1.2741758760
1.2725411086
1.2713659131
1.2707510797
1.2676330548
1.0751317584
1.0752547680
1.0755513917
1.0761351210
1.0769877967
1.0780839776
1.0793926240
1.0808789675
1.0825059611
1.0842351475
1.0860272367
1.0878421900
1.0896389765
1.0913757039
1.0930101878
1.0945010558
1.0958097526
1.0969028447
1.0977531831
1.0983386754
1.0986394765
1.0983243466
1.3027402081
1.3019309479
1.3015682942
1.3008641530
1.2998558503
1.2985965078
1.2971534636
1.2956037698
1.2940297810
1.2925119833
1.2911207399
1.2899101939
1.2889132858
1.2881394842
1.2875752699
1.2871866094
1.2869236194
1.2867247145
1.2865212170
1.2862427503
1.2858205938
1.2851920132
1.2843056694
1.2831255082
1.2816361897
1.2798488101
1.2778043714
1.2755765069
1.2732707168
1.2710184958
1.2689673956
1.2672661480
1.2660474221
1.2654112496
1.2621947701
1.0810495472
1.0811657107
1.0814394858
1.0819787993
1.0827680203
1.0837854191
1.0850046865
1.0863964993
1.0879295553
1.0895709382
1.0912861592
1.0930387896
1.0947899193
1.0964981787
1.0981204266
1.0996131632
1.1009349743
1.1020492354
1.1029252607
1.1035361335
1.1038542563
1.1035291233
1.3004315133
1.2994169657
1.2990117345
1.2982253998
1.2970986903
1.2956885173
1.2940671143
1.2923180541
1.2905320138
1.2887993369
1.2872009626
1.2858011480
1.2846411816
1.2837359916
1.2830739529
1.2826192565
1.2823170062
1.2820980806
1.2818846783
1.2815967441
1.2811562848
1.2804927036
1.2795491701
1.2782872902
1.2766930709
1.2747826550
1.2726051734
1.2702441889
1.2678150997
1.2654574204
1.2633234823
1.2615631726
1.2603075355
1.2596538872
1.2563756354
1.0871078810
1.0871866363
1.0874380223
1.0879342609
1.0886630089
1.0896071902
1.0907461587
1.0920567625
1.0935138043
1.0950898059
1.0967544982
1.0984740779
1.1002105093
1.1019216250
1.1035621289
1.1050854716
1.1064468140
1.1076061071
1.1085289839
1.1091829318
1.1095298016
1.1092039245
1.2975314810
1.2963382473
1.2958911716
1.2950256671
1.2937868698
1.2922360577
1.2904507464
1.2885212460
1.2865465053
1.2846263556
1.2828516241
1.2812956467
1.2800066908
1.2790035209
1.2782746329
1.2777807016
1.2774603222
1.2772357727
1.2770196303
1.2767222812
1.2762571882
1.2755471690
1.2745316161
1.2731718315
1.2714573529
1.2694114385
1.2670930152
1.2645965247
1.2620472411
1.2595916686
1.2573850610
1.2555761478
1.2542920804
1.2536256846
1.2503350830
1.0932164856
1.0932282197
1.0934587647
1.0939154193
1.0945898228
1.0954703748
1.0965428350
1.0977906867
1.0991948730
1.1007328916
1.1023777575
1.1040970049
1.1058520273
1.1075984811
1.1092878276
1.1108698212
1.1122960510
1.1135233378
1.1145140800
1.1152298602
1.1156187339
1.1153095708
1.2940341899
1.2926972472
1.2922069249
1.2912621476
1.2899139610
1.2882290150
1.2862910822
1.2841981194
1.2820579397
1.2799799598
1.2780644167
1.2763925941
1.2750179973
1.2739610320
1.2732078791
1.2727133207
1.2724074410
1.2722025453
1.2720010062
1.2717038795
1.2712170625
1.2704583736
1.2693654137
1.2679013727
1.2660614772
1.2638779286
1.2614206864
1.2587954801
1.2561369146
1.2535970961
1.2513322544
1.2494878400
1.2481852271
1.2475113851
1.2442664998
1.0992839009
1.0992019015
1.0994142392
1.0998369051
1.1004660796
1.1012962574
1.1023200810
1.1035278189
1.1049062506
1.1064370539
1.1080953003
1.1098483681
1.1116555462
1.1134689956
1.1152360576
1.1169024907
1.1184166133
1.1197329448
1.1208117402
1.1216090398
1.1220555934
1.1217875538
1.2899815281
1.2885430219
1.2880051953
1.2869772309
1.2855179248
1.2837005175
1.2816165082
1.2793730959
1.2770882448
1.2748816057
1.2728626557
1.2711195068
1.2697088927
1.2686501979
1.2679242985
1.2674771902
1.2672280586
1.2670776705
1.2669176186
1.2666400175
1.2661444266
1.2653454919
1.2641811372
1.2626185764
1.2606605909
1.2583496283
1.2557672386
1.2530301500
1.2502812033
1.2476764728
1.2453713450
1.2435063215
1.2421957367
1.2415199207
1.2383813084
1.1052202420
1.1050223601
1.1052200814
1.1056161700
1.1062117218
1.1070076899
1.1080037766
1.1091968691
1.1105789791
1.1121349131
1.1138403933
1.1156610699
1.1175526359
1.1194625997
1.1213335723
1.1231073513
1.1247296532
1.1261539366
1.1273399921
1.1282396121
1.1287629845
1.1285648352
1.2854710252
1.2839778841
1.2833846936
1.2822657511
1.2806893249
1.2787362591
1.2765075208
1.2741217148
1.2717088740
1.2694000632
1.2673141627
1.2655450693
1.2641505773
1.2631460733
1.2625037728
1.2621576847
1.2620135285
1.2619589536
1.2618743327
1.2616434496
1.2611609855
1.2603403896
1.2591219891
1.2574788858
1.2554227529
1.2530068431
1.2503240237
1.2475009884
1.2446872438
1.2420411217
1.2397156856
1.2378454656
1.2365372600
1.2358646406
1.2328882881
1.1109400780
1.1106099463
1.1107973390
1.1111755457
1.1117507504
1.1125304687
1.1135213604
1.1147265091
1.1161423536
1.1177556601
1.1195413755
1.1214619309
1.1234681028
1.1255018224
1.1275006094
1.1294025498
1.1311515683
1.1327014196
1.1340134859
1.1350378291
1.1356622421
1.1355637979
1.2806586401
1.2791590578
1.2784980500
1.2772771847
1.2755747048
1.2734791790
1.2711027293
1.2685778809
1.2660491072
1.2636604652
1.2615406612
1.2597884224
1.2584603875
1.2575648528
1.2570619237
1.2568704196
1.2568801380
1.2569642506
1.2569917523
1.2568389732
1.2563973606
1.2555811665
1.2543349983
1.2526392540
1.2505151462
1.2480264520
1.2452762473
1.2423995065
1.2395505223
1.2368882847
1.2345625478
1.2327015802
1.2314049235
1.2307399052
1.2279708470
1.1163642997
1.1158920043
1.1160736636
1.1164431969
1.1170118723
1.1177936610
1.1188018845
1.1200452713
1.1215238512
1.1232252635
1.1251224453
1.1271733922
1.1293229499
1.1315068217
1.1336572365
1.1357087984
1.1376042102
1.1392984934
1.1407565729
1.1419307057
1.1426880398
1.1427170034
1.2757479026
1.2742869913
1.2735395796
1.2722047261
1.2703674181
1.2681222035
1.2655936313
1.2629307316
1.2602949518
1.2578450406
1.2557200014
1.2540224330
1.2528056137
1.2520677530
1.2517536349
1.2517640737
1.2519709692
1.2522321626
1.2524055621
1.2523612273
1.2519891338
1.2512062287
1.2499629253
1.2482477557
1.2460913891
1.2435670636
1.2407862694
1.2378901362
1.2350357703
1.2323814907
1.2300733044
1.2282336111
1.2269556313
1.2263014635
1.2237694098
1.1214201907
1.1208024255
1.1209827356
1.1213523056
1.1219273625
1.1227281068
1.1237741661
1.1250794165
1.1266468411
1.1284642141
1.1305017072
1.1327122061
1.1350341306
1.1373966875
1.1397267374
1.1419553799
1.1440239587
1.1458885884
1.1475185740
1.1488732183
1.1498077099
1.1499876926
1.2709674554
1.2695827093
1.2687216142
1.2672638682
1.2652886311
1.2628916299
1.2602104351
1.2574129406
1.2546798608
1.2521860293
1.2500809043
1.2484697942
1.2474004422
1.2468583072
1.2467702858
1.2470172464
1.2474521565
1.2479175316
1.2482611273
1.2483482628
1.2480692488
1.2473453857
1.2461339574
1.2444318590
1.2422784704
1.2397548223
1.2369785910
1.2340947598
1.2312613847
1.2286351331
1.2263583184
1.2245483782
1.2232935859
1.2226521320
1.2203697668
1.1260423471
1.1252821529
1.1254646502
1.1258412235
1.1264328717
1.1272657733
1.1283655820
1.1297510646
1.1314279620
1.1333840991
1.1355869695
1.1379846320
1.1405095437
1.1430849666
1.1456328114
1.1480806039
1.1503673277
1.1524480158
1.1542940784
1.1558749687
1.1570532562
1.1574046287
1.2665273261
1.2652450365
1.2642311758
1.2626546192
1.2605543089
1.2580182124
1.2551968500
1.2522788436
1.2494657513
1.2469490637
1.2448881263
1.2433894041
1.2424930589
1.2421698260
1.2423273387
1.2428260561
1.2435004583
1.2441789828
1.2447010056
1.2449290109
1.2447554106
1.2441071632
1.2429489495
1.2412856646
1.2391641237
1.2366711091
1.2339280944
1.2310816735
1.2282892271
1.2257051244
1.2234683746
1.2216926336
1.2204627789
1.2198345039
1.2177984143
1.1301745674
1.1292807514
1.1294674635
1.1298549526
1.1304687612
1.1313408014
1.1325025942
1.1339778526
1.1357754387
1.1378839911
1.1402695715
1.1428771511
1.1456354107
1.1484641565
1.1512827732
1.1540169074
1.1566030180
1.1589913982
1.1611473280
1.1630429734
1.1645751169
1.1651240258
1.2625310644
1.2613666229
1.2601555696
1.2585059137
1.2563325555
1.2537032959
1.2507820923
1.2477801141
1.2449206808
1.2424116371
1.2404209421
1.2390544949
1.2383434056
1.2382430232
1.2386422126
1.2393826627
1.2402827674
1.2411596585
1.2418470358
1.2422067803
1.2421350061
1.2415651572
1.2404692440
1.2388592528
1.2367877758
1.2343451526
1.2316543273
1.2288614780
1.2261219687
1.2235874687
1.2213942149
1.2196532871
1.2184476521
1.2178318194
1.2160252657
1.1337737609
1.1327601332
1.1329511759
1.1333496183
1.1339852409
1.1348953794
1.1361172656
1.1376797480
1.1395954982
1.1418553150
1.1444260134
1.1472526446
1.1502644590
1.1533835913
1.1565342651
1.1596490049
1.1626705960
1.1655493115
1.1682345018
1.1706577310
1.1726900787
1.1735102847
1.2587234125
1.2577004598
1.2563729863
1.2548416393
1.2527403701
1.2501247345
1.2471854203
1.2441640092
1.2413089663
1.2388450240
1.2369478652
1.2357218003
1.2351887619
1.2352900019
1.2358984468
1.2368410013
1.2379243699
1.2389585523
1.2397749840
1.2402372537
1.2402463936
1.2397425302
1.2387042935
1.2371493532
1.2351341636
1.2327504341
1.2301204546
1.2273882512
1.2247060926
1.2222226813
1.2200719797
1.2183635282
1.2171796247
1.2165746792
1.2149712398
1.1368165821
1.1357010703
1.1358948937
1.1363009426
1.1369528308
1.1378928753
1.1391637066
1.1407993202
1.1428166678
1.1452097619
1.1479479717
1.1509791820
1.1542374351
1.1576540708
1.1611699946
1.1647460522
1.1683714207
1.1720725092
1.1759299490
1.1801240240
1.1850705864
1.1916715174
1.2122507798
1.2168478787
1.2562953449
1.2538809867
1.2531779230
1.2520244531
1.2501161640
1.2475881284
1.2446863973
1.2416905889
1.2388740397
1.2364753961
1.2346748815
1.2335733763
1.2331839631
1.2334363868
1.2341921520
1.2352689910
1.2364675632
1.2375956074
1.2384858290
1.2390054934
1.2390611208
1.2385989759
1.2376029651
1.2360946232
1.2341322200
1.2318067802
1.2292381023
1.2265666396
1.2239407178
1.2215058590
1.2193941122
1.2177142424
1.2165487912
1.2159528629
1.2145201513
1.1393027546
1.1381064272
1.1383006926
1.1387094181
1.1393696317
1.1403281666
1.1416326929
1.1433222415
1.1454182152
1.1479182102
1.1507944943
1.1539976365
1.1574651418
1.1611340263
1.1649543093
1.1689000618
1.1729770711
1.1772279467
1.1817412399
1.1866836559
1.1923963824
1.1995656896
1.2115339547
1.2158383599
1.2459023122
1.2490248768
1.2500254474
1.2496795089
1.2482231477
1.2459602321
1.2432224623
1.2403410406
1.2376200735
1.2353143738
1.2336098347
1.2326057718
1.2323099734
1.2326459793
1.2334704774
1.2345990197
1.2358325759
1.2369816081
1.2378832885
1.2384099313
1.2384734035
1.2380248991
1.2370517899
1.2355774390
1.2336599235
1.2313877891
1.2288768645
1.2262629487
1.2236898036
1.2212995957
1.2192226715
1.2175675104
1.2164174857
1.2158289097
1.2145317044
1.1412505611
1.1399967713
1.1401891029
1.1405955050
1.1412559933
1.1422214310
1.1435441115
1.1452678515
1.1474184017
1.1499968109
1.1529777199
1.1563128766
1.1599400263
1.1637961227
1.1678312166
1.1720195201
1.1763661451
1.1809089913
1.1857220680
1.1909388257
1.1968261196
1.2039119360
1.2136067287
1.2211441088
1.2424242363
1.2473928920
1.2490026569
1.2489310254
1.2476526090
1.2455239526
1.2428945576
1.2401057399
1.2374670983
1.2352346585
1.2335920715
1.2326345511
1.2323661271
1.2327084296
1.2335191304
1.2346176394
1.2358104662
1.2369145521
1.2377735295
1.2382651042
1.2383055264
1.2378491440
1.2368847182
1.2354353940
1.2335572573
1.2313349516
1.2288792749
1.2263206585
1.2237979332
1.2214498154
1.2194050733
1.2177721927
1.2166357202
1.2160534682
1.2148559893
1.1426878719
1.1414016074
1.1415899931
1.1419897917
1.1426435555
1.1436056521
1.1449325314
1.1466724841
1.1488554761
1.1514859398
1.1545406111
1.1579715322
1.1617147577
1.1657038621
1.1698841753
1.1742243211
1.1787232019
1.1834105341
1.1883461651
1.1936341509
1.1994747018
1.2062590958
1.2147659795
1.2234812797
1.2399336372
1.2462088957
1.2486016412
1.2489219537
1.2478637742
1.2458777846
1.2433517048
1.2406422168
1.2380635046
1.2358707280
1.2342443515
1.2332766390
1.2329709838
1.2332514986
1.2339816246
1.2349889373
1.2360887311
1.2371062554
1.2378919771
1.2383281817
1.2383338246
1.2378643076
1.2369077203
1.2354851824
1.2336493735
1.2314800845
1.2290824877
1.2265813327
1.2241104496
1.2218051664
1.2197928163
1.2181821080
1.2170589707
1.2164828801
1.2153502039
1.1436426774
1.1423500210
1.1425329699
1.1429229085
1.1435644243
1.1445147970
1.1458340957
1.1475747245
1.1497707821
1.1524302726
1.1555323348
1.1590295173
1.1628560348
1.1669413541
1.1712248152
1.1756679968
1.1802626674
1.1850311103
1.1900226176
1.1953190610
1.2010681422
1.2075602089
1.2153518716
1.2242331488
1.2379639006
1.2451062091
1.2482920677
1.2490852052
1.2483034525
1.2464869467
1.2440691025
1.2414275905
1.2388846535
1.2366972926
1.2350457089
1.2340227544
1.2336350746
1.2338130158
1.2344288428
1.2353202680
1.2363122073
1.2372379154
1.2379534568
1.2383439119
1.2383288432
1.2378626124
1.2369308884
1.2355514153
1.2337725596
1.2316688261
1.2293396344
1.2269041348
1.2244914069
1.2222336697
1.2202570847
1.2186708450
1.2175624604
1.2169931970
1.2158918556
1.1441363326
1.1428639612
1.1430405689
1.1434185275
1.1440438787
1.1449761058
1.1462782222
1.1480062490
1.1501982693
1.1528661413
1.1559920701
1.1595300552
1.1634134978
1.1675686089
1.1719293184
1.1764505043
1.1811171328
1.1859451141
1.1909764925
1.1962796911
1.2019713397
1.2082855289
1.2157056240
1.2244471992
1.2367922124
1.2443479923
1.2480501691
1.2491890623
1.2486175822
1.2469261094
1.2445784933
1.2419678055
1.2394231793
1.2372046298
1.2354945713
1.2343894149
1.2339017234
1.2339699111
1.2344756878
1.2352662755
1.2361746817
1.2370399715