<VTKFile type="UnstructuredGrid" version="0.1">
	<UnstructuredGrid>
		<Piece NumberOfPoints="13548" NumberOfCells="3387">
			<CellData>
				<DataArray type="Int32" Name="ghost" NumberOfComponents="1" Format="ascii">
1
1
1
1
1
1
1
1
1
1
1
1
1
1
1
1
1
1
1
1
1
1
1
1
1
1
1
1
1
1
1
1
1
1
1
1
1
1
1
1
1
1
1
1
1
1
1
1
1
1
1
1
1
1
1
1
1
1
0
0
0
0
0
0
0
0
0
0
0
0
0
0
0
0
0
0
0
0
1
1
0
0
0
0
0
0
0
0
0
0
0
0
0
0
0
0
0
0
0
0
0
0
0
0
0
0
0
0
0
0
0
0
0
1
1
0
0
0
0
0
0
0
0
0
0
0
0
0
0
0
0
0
0
0
0
1
1
0
0
0
0
0
0
0
0
0
0
0
0
0
0
0
0
0
0
0
0
0
0
0
0
0
0
0
0
0
0
0
0
0
1
1
0
0
0
0
0
0
0
0
0
0
0
0
0
0
0
0
0
0
0
0
1
1
0
0
0
0
0
0
0
0
0
0
0
0
0
0
0
0
0
0
0
0
0
0
0
0
0
0
0
0
0
0
0
0
0
1
1
0
0
0
0
0
0
0
0
0
0
0
0
0
0
0
0
0
0
0
0
1
1
0
0
0
0
0
0
0
0
0
0
0
0
0
0
0
0
0
0
0
0
0
0
0
0
0
0
0
0
0
0
0
0
0
1
1
0
0
0
0
0
0
0
0
0
0
0
0
0
0
0
0
0
0
0
0
1
1
0
0
0
0
0
0
0
0
0
0
0
0
0
0
0
0
0
0
0
0
0
0
0
0
0
0
0
0
0
0
0
0
0
1
1
0
0
0
0
0
0
0
0
0
0
0
0
0
0
0
0
0
0
0
0
1
1
0
0
0
0
0
0
0
0
0
0
0
0
0
0
0
0
0
0
0
0
0
0
0
0
0
0
0
0
0
0
0
0
0
1
1
0
0
0
0
0
0
0
0
0
0
0
0
0
0
0
0
0
0
0
0
1
1
0
0
0
0
0
0
0
0
0
0
0
0
0
0
0
0
0
0
0
0
0
0
0
0
0
0
0
0
0
0
0
0
0
1
1
0
0
0
0
0
0
0
0
0
0
0
0
0
0
0
0
0
0
0
0
1
1
0
0
0
0
0
0
0
0
0
0
0
0
0
0
0
0
0
0
0
0
0
0
0
0
0
0
0
0
0
0
0
0
0
1
1
0
0
0
0
0
0
0
0
0
0
0
0
0
0
0
0
0
0
0
0
1
1
0
0
0
0
0
0
0
0
0
0
0
0
0
0
0
0
0
0
0
0
0
0
0
0
0
0
0
0
0
0
0
0
0
1
1
0
0
0
0
0
0
0
0
0
0
0
0
0
0
0
0
0
0
0
0
1
1
0
0
0
0
0
0
0
0
0
0
0
0
0
0
0
0
0
0
0
0
0
0
0
0
0
0
0
0
0
0
0
0
0
1
1
0
0
0
0
0
0
0
0
0
0
0
0
0
0
0
0
0
0
0
0
1
1
0
0
0
0
0
0
0
0
0
0
0
0
0
0
0
0
0
0
0
0
0
0
0
0
0
0
0
0
0
0
0
0
0
1
1
0
0
0
0
0
0
0
0
0
0
0
0
0
0
0
0
0
0
0
0
1
1
0
0
0
0
0
0
0
0
0
0
0
0
0
0
0
0
0
0
0
0
0
0
0
0
0
0
0
0
0
0
0
0
0
1
1
0
0
0
0
0
0
0
0
0
0
0
0
0
0
0
0
0
0
0
0
1
1
0
0
0
0
0
0
0
0
0
0
0
0
0
0
0
0
0
0
0
0
0
0
0
0
0
0
0
0
0
0
0
0
0
1
1
0
0
0
0
0
0
0
0
0
0
0
0
0
0
0
0
0
0
0
0
1
1
0
0
0
0
0
0
0
0
0
0
0
0
0
0
0
0
0
0
0
0
0
0
0
0
0
0
0
0
0
0
0
0
0
1
1
0
0
0
0
0
0
0
0
0
0
0
0
0
0
0
0
0
0
0
0
1
1
0
0
0
0
0
0
0
0
0
0
0
0
0
0
0
0
0
0
0
0
0
0
0
0
0
0
0
0
0
0
0
0
0
1
1
0
0
0
0
0
0
0
0
0
0
0
0
0
0
0
0
0
0
0
0
1
1
0
0
0
0
0
0
0
0
0
0
0
0
0
0
0
0
0
0
0
0
0
0
0
0
0
0
0
0
0
0
0
0
0
1
1
0
0
0
0
0
0
0
0
0
0
0
0
0
0
0
0
0
0
0
0
1
1
0
0
0
0
0
0
0
0
0
0
0
0
0
0
0
0
0
0
0
0
0
0
0
0
0
0
0
0
0
0
0
0
0
1
1
0
0
0
0
0
0
0
0
0
0
0
0
0
0
0
0
0
0
0
0
1
1
0
0
0
0
0
0
0
0
0
0
0
0
0
0
0
0
0
0
0
0
0
0
0
0
0
0
0
0
0
0
0
0
0
1
1
0
0
0
0
0
0
0
0
0
0
0
0
0
0
0
0
0
0
0
0
1
1
0
0
0
0
0
0
0
0
0
0
0
0
0
0
0
0
0
0
0
0
0
0
0
0
0
0
0
0
0
0
0
0
0
1
1
0
0
0
0
0
0
0
0
0
0
0
0
0
0
0
0
0
0
0
0
1
1
0
0
0
0
0
0
0
0
0
0
0
0
0
0
0
0
0
0
0
0
0
0
0
0
0
0
0
0
0
0
0
0
0
1
1
0
0
0
0
0
0
0
0
0
0
0
0
0
0
0
0
0
0
0
0
1
1
0
0
0
0
0
0
0
0
0
0
0
0
0
0
0
0
0
0
0
0
0
0
0
0
0
0
0
0
0
0
0
0
0
1
1
0
0
0
0
0
0
0
0
0
0
0
0
0
0
0
0
0
0
0
0
1
1
0
0
0
0
0
0
0
0
0
0
0
0
0
0
0
0
0
0
0
0
0
0
0
0
0
0
0
0
0
0
0
0
0
1
1
0
0
0
0
0
0
0
0
0
0
0
0
0
0
0
0
0
0
0
0
1
1
0
0
0
0
0
0
0
0
0
0
0
0
0
0
0
0
0
0
0
0
0
0
0
0
0
0
0
0
0
0
0
0
0
1
1
0
0
0
0
0
0
0
0
0
0
0
0
0
0
0
0
0
0
0
0
1
1
0
0
0
0
0
0
0
0
0
0
0
0
0
0
0
0
0
0
0
0
0
0
0
0
0
0
0
0
0
0
0
0
0
1
1
0
0
0
0
0
0
0
0
0
0
0
0
0
0
0
0
0
0
0
0
0
1
1
0
0
0
0
0
0
0
0
0
0
0
0
0
0
0
0
0
0
0
0
0
0
0
0
0
0
0
0
0
0
0
0
0
0
1
1
0
0
0
0
0
0
0
0
0
0
0
0
0
0
0
0
0
0
0
0
0
0
0
0
0
0
0
0
0
0
0
0
0
0
0
0
0
0
0
0
0
0
0
0
0
0
0
0
0
0
0
0
0
0
0
0
0
1
1
0
0
0
0
0
0
0
0
0
0
0
0
0
0
0
0
0
0
0
0
0
0
0
0
0
0
0
0
0
0
0
0
0
0
0
0
0
0
0
0
0
0
0
0
0
0
0
0
0
0
0
0
0
0
0
0
0
1
1
0
0
0
0
0
0
0
0
0
0
0
0
0
0
0
0
0
0
0
0
0
0
0
0
0
0
0
0
0
0
0
0
0
0
0
0
0
0
0
0
0
0
0
0
0
0
0
0
0
0
0
0
0
0
0
0
0
1
1
0
0
0
0
0
0
0
0
0
0
0
0
0
0
0
0
0
0
0
0
0
0
0
0
0
0
0
0
0
0
0
0
0
0
0
0
0
0
0
0
0
0
0
0
0
0
0
0
0
0
0
0
0
0
0
0
0
1
1
0
0
0
0
0
0
0
0
0
0
0
0
0
0
0
0
0
0
0
0
0
0
0
0
0
0
0
0
0
0
0
0
0
0
0
0
0
0
0
0
0
0
0
0
0
0
0
0
0
0
0
0
0
0
0
0
0
1
1
0
0
0
0
0
0
0
0
0
0
0
0
0
0
0
0
0
0
0
0
0
0
0
0
0
0
0
0
0
0
0
0
0
0
0
0
0
0
0
0
0
0
0
0
0
0
0
0
0
0
0
0
0
0
0
0
0
1
1
0
0
0
0
0
0
0
0
0
0
0
0
0
0
0
0
0
0
0
0
0
0
0
0
0
0
0
0
0
0
0
0
0
0
0
0
0
0
0
0
0
0
0
0
0
0
0
0
0
0
0
0
0
0
0
0
0
1
1
0
0
0
0
0
0
0
0
0
0
0
0
0
0
0
0
0
0
0
0
0
0
0
0
0
0
0
0
0
0
0
0
0
0
0
0
0
0
0
0
0
0
0
0
0
0
0
0
0
0
0
0
0
0
0
0
0
1
1
0
0
0
0
0
0
0
0
0
0
0
0
0
0
0
0
0
0
0
0
0
0
0
0
0
0
0
0
0
0
0
0
0
0
0
0
0
0
0
0
0
0
0
0
0
0
0
0
0
0
0
0
0
0
0
0
0
1
1
0
0
0
0
0
0
0
0
0
0
0
0
0
0
0
0
0
0
0
0
0
0
0
0
0
0
0
0
0
0
0
0
0
0
0
0
0
0
0
0
0
0
0
0
0
0
0
0
0
0
0
0
0
0
0
0
0
1
1
0
0
0
0
0
0
0
0
0
0
0
0
0
0
0
0
0
0
0
0
0
1
1
0
0
0
0
0
0
0
0
0
0
0
0
0
0
0
0
0
0
0
0
0
0
0
0
0
0
0
0
0
0
0
0
0
0
1
1
0
0
0
0
0
0
0
0
0
0
0
0
0
0
0
0
0
0
0
0
1
1
0
0
0
0
0
0
0
0
0
0
0
0
0
0
0
0
0
0
0
0
0
0
0
0
0
0
0
0
0
0
0
0
0
1
1
0
0
0
0
0
0
0
0
0
0
0
0
0
0
0
0
0
0
0
0
1
1
0
0
0
0
0
0
0
0
0
0
0
0
0
0
0
0
0
0
0
0
0
0
0
0
0
0
0
0
0
0
0
0
0
1
1
0
0
0
0
0
0
0
0
0
0
0
0
0
0
0
0
0
0
0
0
1
1
0
0
0
0
0
0
0
0
0
0
0
0
0
0
0
0
0
0
0
0
0
0
0
0
0
0
0
0
0
0
0
0
0
1
1
0
0
0
0
0
0
0
0
0
0
0
0
0
0
0
0
0
0
0
0
1
1
0
0
0
0
0
0
0
0
0
0
0
0
0
0
0
0
0
0
0
0
0
0
0
0
0
0
0
0
0
0
0
0
0
1
1
0
0
0
0
0
0
0
0
0
0
0
0
0
0
0
0
0
0
0
0
1
1
0
0
0
0
0
0
0
0
0
0
0
0
0
0
0
0
0
0
0
0
0
0
0
0
0
0
0
0
0
0
0
0
0
1
1
0
0
0
0
0
0
0
0
0
0
0
0
0
0
0
0
0
0
0
0
1
1
0
0
0
0
0
0
0
0
0
0
0
0
0
0
0
0
0
0
0
0
0
0
0
0
0
0
0
0
0
0
0
0
0
1
1
0
0
0
0
0
0
0
0
0
0
0
0
0
0
0
0
0
0
0
0
1
1
0
0
0
0
0
0
0
0
0
0
0
0
0
0
0
0
0
0
0
0
0
0
0
0
0
0
0
0
0
0
0
0
0
1
1
0
0
0
0
0
0
0
0
0
0
0
0
0
0
0
0
0
0
0
0
1
1
0
0
0
0
0
0
0
0
0
0
0
0
0
0
0
0
0
0
0
0
0
0
0
0
0
0
0
0
0
0
0
0
0
1
1
0
0
0
0
0
0
0
0
0
0
0
0
0
0
0
0
0
0
0
0
1
1
0
0
0
0
0
0
0
0
0
0
0
0
0
0
0
0
0
0
0
0
0
0
0
0
0
0
0
0
0
0
0
0
0
1
1
0
0
0
0
0
0
0
0
0
0
0
0
0
0
0
0
0
0
0
0
1
1
0
0
0
0
0
0
0
0
0
0
0
0
0
0
0
0
0
0
0
0
0
0
0
0
0
0
0
0
0
0
0
0
0
1
1
0
0
0
0
0
0
0
0
0
0
0
0
0
0
0
0
0
0
0
0
1
1
0
0
0
0
0
0
0
0
0
0
0
0
0
0
0
0
0
0
0
0
0
0
0
0
0
0
0
0
0
0
0
0
0
1
1
0
0
0
0
0
0
0
0
0
0
0
0
0
0
0
0
0
0
0
0
1
1
0
0
0
0
0
0
0
0
0
0
0
0
0
0
0
0
0
0
0
0
0
0
0
0
0
0
0
0
0
0
0
0
0
1
1
0
0
0
0
0
0
0
0
0
0
0
0
0
0
0
0
0
0
0
0
1
1
0
0
0
0
0
0
0
0
0
0
0
0
0
0
0
0
0
0
0
0
0
0
0
0
0
0
0
0
0
0
0
0
0
1
1
0
0
0
0
0
0
0
0
0
0
0
0
0
0
0
0
0
0
0
0
1
1
0
0
0
0
0
0
0
0
0
0
0
0
0
0
0
0
0
0
0
0
0
0
0
0
0
0
0
0
0
0
0
0
0
1
1
0
0
0
0
0
0
0
0
0
0
0
0
0
0
0
0
0
0
0
0
1
1
0
0
0
0
0
0
0
0
0
0
0
0
0
0
0
0
0
0
0
0
0
0
0
0
0
0
0
0
0
0
0
0
0
1
1
0
0
0
0
0
0
0
0
0
0
0
0
0
0
0
0
0
0
0
0
1
1
0
0
0
0
0
0
0
0
0
0
0
0
0
0
0
0
0
0
0
0
0
0
0
0
0
0
0
0
0
0
0
0
0
1
1
0
0
0
0
0
0
0
0
0
0
0
0
0
0
0
0
0
0
0
0
1
1
0
0
0
0
0
0
0
0
0
0
0
0
0
0
0
0
0
0
0
0
0
0
0
0
0
0
0
0
0
0
0
0
0
1
1
0
0
0
0
0
0
0
0
0
0
0
0
0
0
0
0
0
0
0
0
1
1
0
0
0
0
0
0
0
0
0
0
0
0
0
0
0
0
0
0
0
0
0
0
0
0
0
0
0
0
0
0
0
0
0
1
1
0
0
0
0
0
0
0
0
0
0
0
0
0
0
0
0
0
0
0
0
1
1
0
0
0
0
0
0
0
0
0
0
0
0
0
0
0
0
0
0
0
0
0
0
0
0
0
0
0
0
0
0
0
0
0
1
1
0
0
0
0
0
0
0
0
0
0
0
0
0
0
0
0
0
0
0
0
1
1
0
0
0
0
0
0
0
0
0
0
0
0
0
0
0
0
0
0
0
0
0
0
0
0
0
0
0
0
0
0
0
0
0
1
1
0
0
0
0
0
0
0
0
0
0
0
0
0
0
0
0
0
0
0
0
1
1
0
0
0
0
0
0
0
0
0
0
0
0
0
0
0
0
0
0
0
0
0
0
0
0
0
0
0
0
0
0
0
0
0
1
1
1
1
1
1
1
1
1
1
1
1
1
1
1
1
1
1
1
1
1
1
1
1
1
1
1
1
1
1
1
1
1
1
1
1
1
1
1
1
1
1
1
1
1
1
1
1
1
1
1
1
1
1
1
1
1
1
				</DataArray>
				<DataArray type="Float64" Name="h" NumberOfComponents="1" Format="ascii">
1.3086408013
1.3089368459
1.3087566458
1.3083825134
1.3077882819
1.3069389073
1.3057955537
1.3043220006
1.3024926069
1.3003001277
1.2977619737
1.2949241973
1.2918619611
1.2886761795
1.2854870448
1.2824256804
1.2796250326
1.2772107724
1.2752935828
1.2739629031
1.2732814154
1.2732814154
1.1423255434
1.1417313222
1.1418917621
1.1421949610
1.1426110849
1.1431045886
1.1436402149
1.1441873705
1.1447209266
1.1452211324
1.1456736500
1.1460681123
1.1463975497
1.1466588900
1.1468526603
1.1469840778
1.1470656684
1.1471199949
1.1471846036
1.1473191104
1.1476128941
1.1481940378
1.1492370681
1.1509649158
1.1536400479
1.1575360872
1.1628822859
1.1697782498
1.1780898670
1.1873617059
1.1967934120
1.2053225183
1.2118194695
1.2153377035
1.2153377035
1.3089368459
1.3091774492
1.3089709302
1.3085417203
1.3078592742
1.3068831242
1.3055691479
1.3038772435
1.3017803704
1.2992731491
1.2963784518
1.2931512088
1.2896783951
1.2860748910
1.2824760630
1.2790285278
1.2758801237
1.2731700142
1.2710203754
1.2695296066
1.2687665150
1.2732814154
1.1417313222
1.1411195619
1.1412852449
1.1415987746
1.1420299861
1.1425428417
1.1431014724
1.1436746212
1.1442365297
1.1447669226
1.1452511154
1.1456786559
1.1460428583
1.1463414778
1.1465766736
1.1467564843
1.1468980010
1.1470308173
1.1472028461
1.1474883271
1.1479962679
1.1488795263
1.1503414142
1.1526343653
1.1560445213
1.1608531213
1.1672685742
1.1753310673
1.1848090683
1.1951308855
1.2053968682
1.2144982897
1.2213236277
1.2249826489
1.2153377035
1.3088243869
1.3090419310
1.3088379554
1.3084141801
1.3077407238
1.3067780004
1.3054828190
1.3038158207
1.3017502277
1.2992801854
1.2964272297
1.2932441507
1.2898152567
1.2862526777
1.2826894285
1.2792705795
1.2761434411
1.2734476514
1.2713066245
1.2698203412
1.2690590581
1.2735134875
1.1414645827
1.1408536939
1.1410262810
1.1413525113
1.1418004653
1.1423322643
1.1429104647
1.1435026252
1.1440821716
1.1446283092
1.1451260767
1.1455649579
1.1459384266
1.1462446714
1.1464866398
1.1466736328
1.1468246240
1.1469718488
1.1471666934
1.1474875793
1.1480478853
1.1490038075
1.1505586645
1.1529579985
1.1564696341
1.1613412081
1.1677326444
1.1756299699
1.1847620939
1.1945583172
1.2041777707
1.2126223116
1.2189124052
1.2222715835
1.2127999047
1.3086228675
1.3087931676
1.3085939877
1.3081804568
1.3075239440
1.3065865350
1.3053268223
1.3037069060
1.3017005952
1.2993012580
1.2965280359
1.2934297807
1.2900858024
1.2866029816
1.2831097368
1.2797479873
1.2766637882
1.2739974426
1.2718745405
1.2703979720
1.2696407198
1.2739756901
1.1409160844
1.1403077466
1.1404942859
1.1408461549
1.1413278671
1.1418978243
1.1425154187
1.1431458335
1.1437608547
1.1443386327
1.1448636306
1.1453251799
1.1457170479
1.1460382698
1.1462933528
1.1464941080
1.1466632529
1.1468382556
1.1470773295
1.1474670027
1.1481289017
1.1492250564
1.1509575627
1.1535567717
1.1572531199
1.1622286589
1.1685525951
1.1761145817
1.1845790681
1.1933866501
1.2018091800
1.2090489386
1.2143618931
1.2171746429
1.2080626707
1.3083768704
1.3084739162
1.3082812157
1.3078815306
1.3072479381
1.3063448302
1.3051333044
1.3035775934
1.3016525279
1.2993507029
1.2966882994
1.2937090422
1.2904855208
1.2871173340
1.2837262757
1.2804494259
1.2774305081
1.2748101629
1.2727165381
1.2712562802
1.2705060445
1.2746655609
1.1400543341
1.1394519888
1.1396597884
1.1400506541
1.1405836075
1.1412113876
1.1418886118
1.1425768926
1.1432455409
1.1438710921
1.1444370960
1.1449325976
1.1453517473
1.1456947991
1.1459685598
1.1461885691
1.1463831040
1.1465973511
1.1468994612
1.1473874785
1.1481941871
1.1494883440
1.1514673495
1.1543357394
1.1582667770
1.1633489694
1.1695308669
1.1765847921
1.1841098369
1.1915816379
1.1984287176
1.2041083832
1.2081674477
1.2102819045
1.2017285492
1.3081473948
1.3081433567
1.3079579969
1.3075740352
1.3069665734
1.3061027730
1.3049468149
1.3034656965
1.3016358429
1.2994494493
1.2969197697
1.2940849702
1.2910099722
1.2877856867
1.2845255818
1.2813601631
1.2784293428
1.2758731246
1.2738218668
1.2723861765
1.2716468816
1.2755794311
1.1388299130
1.1382399103
1.1384766363
1.1389204139
1.1395226806
1.1402284821
1.1409860334
1.1417521883
1.1424929441
1.1431826346
1.1438035151
1.1443441553
1.1447991218
1.1451702107
1.1454672263
1.1457106150
1.1459359601
1.1461984937
1.1465790481
1.1471898406
1.1481763517
1.1497127980
1.1519856350
1.1551606258
1.1593347051
1.1644822986
1.1704186695
1.1768034840
1.1831944317
1.1891360055
1.1942419962
1.1982387952
1.2009654002
1.2023436130
1.1945414463
1.3080057619
1.3078718272
1.3076936564
1.3073252057
1.3067438027
1.3059197011
1.3048206260
1.3034169444
1.3016873836
1.2996244682
1.2972391446
1.2945643504
1.2916572084
1.2885992404
1.2854943165
1.2824646779
1.2796445932
1.2771717971
1.2751777228
1.2737764229
1.2730528948
1.2767129450
1.1371736767
1.1366065855
1.1368803249
1.1373915447
1.1380817843
1.1388862701
1.1397451928
1.1406094935
1.1414410348
1.1422113503
1.1429009838
1.1434977938
1.1439967455
1.1444014547
1.1447253812
1.1449950105
1.1452548929
1.1455724241
1.1460433897
1.1467958900
1.1479879970
1.1497957198
1.1523856786
1.1558706766
1.1602553964
1.1653907667
1.1709660070
1.1765565464
1.1817199854
1.1861042381
1.1895169850
1.1919304366
1.1934311553
1.1941406663
1.1872461744
1.3080270806
1.3077349724
1.3075627492
1.3072073839
1.3066485657
1.3058598809
1.3048129900
1.3034822207
1.3018494130
1.2999084230
1.2976689776
1.2951597607
1.2924307036
1.2895539341
1.2866229531
1.2837502174
1.2810623041
1.2786924946
1.2767714320
1.2754154077
1.2747131091
1.2780625806
1.1349952757
1.1344672034
1.1347864727
1.1353802163
1.1361774962
1.1371015201
1.1380828890
1.1390655608
1.1400064963
1.1408738460
1.1416460155
1.1423098937
1.1428608021
1.1433044300
1.1436585289
1.1439567208
1.1442540903
1.1446320739
1.1452031356
1.1461119123
1.1475272414
1.1496210413
1.1525294457
1.1562989449
1.1608324228
1.1658615730
1.1709753449
1.1757092215
1.1796666418
1.1826232414
1.1845671877
1.1856655357
1.1861797543
1.1863614290
1.1804683719
1.3082833873
1.3078072741
1.3076387251
1.3072919520
1.3067491298
1.3059873965
1.3049827121
1.3037139477
1.3021669112
1.3003379377
1.2982369112
1.2958896797
1.2933401621
1.2906517001
1.2879071796
1.2852080533
1.2826711339
1.2804227141
1.2785902273
1.2772904523
1.2766149450
1.2796245726
1.1321840325
1.1317175565
1.1320913041
1.1327830992
1.1337066404
1.1347708915
1.1358954346
1.1370163241
1.1380849541
1.1390655638
1.1399340252
1.1406760243
1.1412872223
1.1417756646
1.1421640541
1.1424942461
1.1428333553
1.1432784922
1.1439599586
1.1450385269
1.1466904155
1.1490759639
1.1522898700
1.1563022285
1.1609133929
1.1657536146
1.1703501366
1.1742470008
1.1771308270
1.1789111720
1.1797237988
1.1798655770
1.1796935831
1.1795184752
1.1746457036
1.3088378948
1.3081563415
1.3079883628
1.3076440448
1.3071081981
1.3063617482
1.3053853167
1.3041628756
1.3026850282
1.3009517424
1.2989745211
1.2967780073
1.2944016410
1.2919010557
1.2893487728
1.2868344163
1.2844631336
1.2823515913
1.2806212968
1.2793874783
1.2787436495
1.2813942362
1.1286125878
1.1282367646
1.1286743737
1.1294800491
1.1305489084
1.1317735199
1.1330612745
1.1343396430
1.1355539454
1.1366640809
1.1376430737
1.1384752599
1.1391567230
1.1396982530
1.1401282630
1.1404980000
1.1408880734
1.1414126798
1.1422205702
1.1434872870
1.1453918216
1.1480747075
1.1515795584
1.1557951514
1.1604278699
1.1650343001
1.1691224722
1.1722860178
1.1743145816
1.1752384763
1.1752963405
1.1748504586
1.1742856543
1.1739160427
1.1700126148
1.3097411775
1.3088387374
1.3086677157
1.3083187202
1.3077793801
1.3070346666
1.3060702143
1.3048755966
1.3034469364
1.3017888651
1.2999158708
1.2978530132
1.2956369211
1.2933168892
1.2909557377
1.2886308713
1.2864342009
1.2844702720
1.2828519478
1.2816909143
1.2810820162
1.2833654907
1.1241439628
1.1238927985
1.1244040836
1.1253395577
1.1265722346
1.1279764017
1.1294465344
1.1309011946
1.1322793351
1.1335362167
1.1346418166
1.1355791151
1.1363448722
1.1369532030
1.1374391717
1.1378647061
1.1383253815
1.1389536765
1.1399168543
1.1414029828
1.1435883436
1.1465854975
1.1503797584
1.1547793350
1.1594124721
1.1637937462
1.1674493028
1.1700481620
1.1714835632
1.1718796326
1.1715319608
1.1708163248
1.1700988553
1.1696634970
1.1666266521
1.3110284932
1.3098967202
1.3097189024
1.3093578297
1.3088041460
1.3080471231
1.3070777172
1.3058915007
1.3044906723
1.3028853371
1.3010941013
1.2991438805
1.2970700967
1.2949171864
1.2927392230
1.2906014131
1.2885812837
1.2867691043
1.2852666571
1.2841805209
1.2836070216
1.2855271980
1.1186439271
1.1185525787
1.1191479097
1.1202291217
1.1216433775
1.1232453650
1.1249166190
1.1265669435
1.1281288694
1.1295528358
1.1308056759
1.1318691560
1.1327411752
1.1334400025
1.1340085354
1.1345208323
1.1350888956
1.1358643871
1.1370324901
1.1387906294
1.1413061802
1.1446560326
1.1487626550
1.1533590069
1.1580144844
1.1622307990
1.1655783419
1.1678106035
1.1689106855
1.1690651892
1.1685889853
1.1678377384
1.1671348955
1.1667203892
1.1644183252
1.3127187986
1.3113565831
1.3111684288
1.3107882955
1.3102100143
1.3094273622
1.3084368342
1.3072402505
1.3058462260
1.3042708711
1.3025377272
1.3006767062
1.2987234182
1.2967188739
1.2947095079
1.2927486880
1.2908988514
1.2892342903
1.2878437647
1.2868279715
1.2862862457
1.2878592772
1.1119986019
1.1120969874
1.1127876182
1.1140306756
1.1156436862
1.1174614479
1.1193535472
1.1212217541
1.1229923068
1.1246106347
1.1260403043
1.1272620565
1.1282755371
1.1291042093
1.1298001930
1.1304512185
1.1311870225
1.1321788299
1.1336282142
1.1357376239
1.1386585177
1.1424248394
1.1468937889
1.1517309514
1.1564657734
1.1606096172
1.1637909232
1.1658441511
1.1668225141
1.1669478885
1.1665298392
1.1658879880
1.1652964535
1.1649505713
1.1632432341
1.3148155735
1.3132287554
1.3130272110
1.3126219737
1.3120101669
1.3111901763
1.3101641132
1.3089401090
1.3075332940
1.3059660156
1.3042672238
1.3024706150
1.3006130852
1.2987334854
1.2968717451
1.2950699862
1.2933752381
1.2918445765
1.2905523734
1.2895937320
1.2890745883
1.2903289884
1.1041342417
1.1044386356
1.1052373336
1.1066589221
1.1084878478
1.1105404452
1.1126767347
1.1147917525
1.1168055368
1.1186579989
1.1203089634
1.1217380944
1.1229473052
1.1239663233
1.1248579150
1.1257249114
1.1267156640
1.1280204713
1.1298544603
1.1324193135
1.1358426085
1.1401083380
1.1450074432
1.1501468434
1.1550323073
1.1592000350
1.1623409756
1.1643610333
1.1653650440
1.1655915311
1.1653328670
1.1648695654
1.1644300250
1.1641709959
1.1629254310
1.3173075535
1.3155079609
1.3152906043
1.3148554282
1.3142028499
1.3133358253
1.3122619852
1.3109956278
1.3095582543
1.3079783934
1.3062905463
1.3045326308
1.3027435989
1.3009611721
1.2992198366
1.2975511847
1.2959868059
1.2945656784
1.2933469101
1.2924214720
1.2919083414
1.2928844418
1.0950349315
1.0955392185
1.0964616650
1.0980802764
1.1001439122
1.1024544778
1.1048664939
1.1072698967
1.1095780556
1.1117239195
1.1136621574
1.1153705702
1.1168533910
1.1181474126
1.1193272575
1.1205119275
1.1218685746
1.1236049487
1.1259454062
1.1290836316
1.1331146346
1.1379659677
1.1433625978
1.1488616649
1.1539586945
1.1582244069
1.1614118257
1.1634882278
1.1645965623
1.1649819908
1.1649168881
1.1646466911
1.1643619531
1.1641887714
1.1632881890
1.3201695296
1.3181735931
1.3179386475
1.3174699209
1.3167710017
1.3158492112
1.3147174101
1.3133957098
1.3119116092
1.3102995074
1.3085993124
1.3068532857
1.3051028936
1.3033855048
1.3017310922
1.3001614665
1.2986928986
1.2973455417
1.2961625409
1.2952332107
1.2946997325
1.2954485148
1.0847506290
1.0854203544
1.0864878306
1.0883261549
1.0906479951
1.0932485709
1.0959827102
1.0987365354
1.1014147378
1.1039399421
1.1062584836
1.1083441709
1.1102027402
1.1118783423
1.1134583114
1.1150784562
1.1169242148
1.1192181514
1.1221883826
1.1260125590
1.1307445950
1.1362504688
1.1421911919
1.1480834260
1.1534239386
1.1578245250
1.1610983561
1.1632661175
1.1645005780
1.1650496461
1.1651677358
1.1650718004
1.1649229560
1.1648240465
1.1641716195
1.3233634396
1.3211904944
1.3209367314
1.3204318687
1.3196824128
1.3186996755
1.3175012688
1.3161125674
1.3145664960
1.3129028035
1.3111664312
1.3094038539
1.3076592479
1.3059701746
1.3043628761
1.3028500979
1.3014329292
1.3001118182
1.2989128344
1.2979265119
1.2973330299
1.2979141639
1.0733851365
1.0741579429
1.0754021351
1.0774909754
1.0801039715
1.0830424403
1.0861686395
1.0893644574
1.0925208220
1.0955434679
1.0983645896
1.1009500940
1.1033054341
1.1054820124
1.1075806174
1.1097544135
1.1122063840
1.1151709372
1.1188742934
1.1234704544
1.1289651760
1.1351601112
1.1416565748
1.1479407179
1.1535207955
1.1580545531
1.1614133349
1.1636655922
1.1650092500
1.1656942857
1.1659608274
1.1660038588
1.1659622837
1.1659216702
1.1654407400
1.3268379312
1.3245084220
1.3242349947
1.3236921071
1.3228888091
1.3218398736
1.3205670135
1.3191001475
1.3174768903
1.3157416584
1.3139438816
1.3121339290
1.3103586800
1.3086562440
1.3070497783
1.3055436081
1.3041236624
1.3027692729
1.3014869882
1.3003705359
1.2996583425
1.3001373551
1.0610603309
1.0618547252
1.0633267335
1.0657118690
1.0686663609
1.0720168305
1.0756399934
1.0794090198
1.0831908314
1.0868632310
1.0903354344
1.0935600173
1.0965400227
1.0993343685
1.1020587297
1.1048849170
1.1080334044
1.1117482074
1.1162490515
1.1216604024
1.1279353528
1.1348114067
1.1418365758
1.1484767863
1.1542607528
1.1588956912
1.1623091366
1.1646131036
1.1660278574
1.1668058807
1.1671765665
1.1673182767
1.1673532930
1.1673544025
1.1669865439
1.3305270531
1.3280608158
1.3277670843
1.3271846407
1.3263246029
1.3252045432
1.3238494841
1.3222930301
1.3205766217
1.3187485376
1.3168620268
1.3149708946
1.3131245620
1.3113618891
1.3097034676
1.3081457467
1.3066592768
1.3051998980
1.3037495464
1.3024037409
1.3014850545
1.3019297018
1.0478632807
1.0485946769
1.0503815160
1.0531349540
1.0565113729
1.0603893968
1.0646639214
1.0691871974
1.0737844627
1.0782895779
1.0825777875
1.0865829478
1.0903048995
1.0938121779
1.0972386679
1.1007778736
1.1046693255
1.1091660881
1.1144787887
1.1206989725
1.1277254693
1.1352344391
1.1427282894
1.1496624402
1.1555932531
1.1602793461
1.1637020281
1.1660132066
1.1674533088
1.1682777856
1.1687080620
1.1689098792
1.1689929991
1.1690206955
1.1687228218
1.3343490997
1.3317638939
1.3314492908
1.3308258634
1.3299062466
1.3287100528
1.3272647157
1.3256065643
1.3237799030
1.3218359737
1.3198310787
1.3178218885
1.3158600704
1.3139852909
1.3122159512
1.3105410150
1.3089150723
1.3072666758
1.3055436289
1.3038339426
1.3025737320
1.3030497295
1.0337858166
1.0343854018
1.0366404370
1.0398791516
1.0438094620
1.0483952691
1.0535434314
1.0590603782
1.0647032653
1.0702428114
1.0755103962
1.0804191504
1.0849689065
1.0892435375
1.0934014256
1.0976631901
1.1022910001
1.1075483785
1.1136364221
1.1206128023
1.1283228904
1.1363859641
1.1442666403
1.1514180288
1.1574290577
1.1621098896
1.1654924665
1.1677649385
1.1691857932
1.1700135721
1.1704636631
1.1706920498
1.1707989223
1.1708403888
1.1705816813
1.3382047632
1.3355153096
1.3351792686
1.3345134066
1.3335312782
1.3322537170
1.3307096018
1.3289369570
1.3269819202
1.3248977226
1.3227428651
1.3205761971
1.3184511806
1.3164081485
1.3144634486
1.3125986550
1.3107512633
1.3088168507
1.3066928804
1.3044346866
1.3026157669
1.3031822997
1.0186566734
1.0190874262
1.0220905366
1.0260141166
1.0307250296
1.0363032158
1.0426388257
1.0494503956
1.0563949684
1.0631644615
1.0695444289
1.0754337713
1.0808425234
1.0858805620
1.0907402550
1.0956768090
1.1009800776
1.1069268073
1.1137096370
1.1213530319
1.1296510828
1.1381711138
1.1463468157
1.1536350317
1.1596597573
1.1642811183
1.1675778117
1.1697704493
1.1711334054
1.1719280912
1.1723651284
1.1725927683
1.1727037459
1.1727486971
1.1725077716
1.3419760455
1.3391937654
1.3388356925
1.3381258796
1.3370781872
1.3357138270
1.3340621272
1.3321617447
1.3300595784
1.3278098198
1.3254722420
1.3231070791
1.3207689732
1.3184985434
1.3163098589
1.3141766589
1.3120172956
1.3096861851
1.3070047433
1.3039406723
1.3011940364
1.3018996302
1.0020161289
1.0022823454
1.0065758386
1.0115629440
1.0174736834
1.0245010804
1.0324523348
1.0409049388
1.0493937471
1.0575350754
1.0650853009
1.0719497572
1.0781678340
1.0838907283
1.0893561336
1.0948616775
1.1007297666
1.1072530252
1.1146169093
1.1228137705
1.1315888298
1.1404618538
1.1488408593
1.1561901182
1.1621689460
1.1666843850
1.1698574169
1.1719372323
1.1732118720
1.1739451633
1.1743437852
1.1745497119
1.1746497683
1.1746903543
1.1744528804
1.3455280937
1.3426616803
1.3422808904
1.3415254236
1.3404088232
1.3389518171
1.3371831536
1.3351410127
1.3328719205
1.3304299298
1.3278751037
1.3252682436
1.3226645833
1.3201047225
1.3176002462
1.3151163440
1.3125491597
1.3097004649
1.3062766015
1.3020483408
1.2977087557
1.2985882345
0.9826729489
0.9828238247
0.9896343220
0.9965574657
1.0045053561
1.0137046386
1.0238010246
1.0342145450
1.0443863140
1.0539038147
1.0625405405
1.0702455120
1.0771136771
1.0833540210
1.0892590553
1.0951737380
1.1014550424
1.1084119188
1.1162225076
1.1248473298
1.1339844492
1.1431093224
1.1516077054
1.1589527927
1.1648375732
1.1692118291
1.1722339575
1.1741778301
1.1753429622
1.1759950357
1.1763373431
1.1765066701
1.1765850971
1.1766157136
1.1763725335
1.3487150430
1.3457718216
1.3453674095
1.3445641141
1.3433744665
1.3418177184
1.3399207956
1.3377199765
1.3352598474
1.3325926813
1.3297772762
1.3268737328
1.3239372610
1.3210090323
1.3181003191
1.3151712739
1.3120983254
1.3086226806
1.3042841046
1.2984493690
1.2912659524
1.2923399264
0.9567538611
0.9568889245
0.9701307876
0.9814228068
0.9930601660
1.0054146137
1.0181095427
1.0305644405
1.0422690959
1.0528924202
1.0622997643
1.0705286600
1.0777525875
1.0842470323
1.0903600834
1.0964810158
1.1029970584
1.1102293935
1.1183457946
1.1272735183
1.1366640108
1.1459503939
1.1544979212
1.1617883974
1.1675453903
1.1717564685
1.1746123825
1.1764078781
1.1774518680
1.1780113283
1.1782865893
1.1784101209
1.1784601804
1.1784772661
1.1782229729
1.3513921137
1.3483799111
1.3479508278
1.3470971532
1.3458295055
1.3441642787
1.3421246582
1.3397424840
1.3370570683
1.3341145529
1.3309669313
1.3276667624
1.3242614469
1.3207855366
1.3172470151
1.3136100903
1.3097671400
1.3054800776
1.3002439514
1.2929624487
1.2815544324
1.2828364292
0.9086692243
0.9089639618
0.9464828465
0.9688467515
0.9866740137
1.0027812822
1.0177815146
1.0316075377
1.0440716759
1.0550630864
1.0645987422
1.0728203598
1.0799731587
1.0863826667
1.0924339322
1.0985435253
1.1051150883
1.1124719022
1.1207649080
1.1298850408
1.1394369090
1.1488125886
1.1573576092
1.1645609392
1.1701727540
1.1742130823
1.1769000121
1.1785455837
1.1794662420
1.1799297929
1.1801340014
1.1802077826
1.1802263450
1.1802281811
1.1799600768
1.3534336867
1.3503627462
1.3499087800
1.3490038211
1.3476555720
1.3458759248
1.3436818054
1.3410968112
1.3381491027
1.3348693381
1.3312874031
1.3274224083
1.3232688026
1.3187739642
1.3137952366
1.3080259612
1.3008535687
1.2910581751
1.2761271458
1.2505113074
1.2007079461
1.0891780402
0.9254933230
0.9666034828
0.9807811162
0.9774882309
0.9859455015
0.9941567369
1.0042588406
1.0157816993
1.0278300443
1.0396161690
1.0505930736
1.0604600399
1.0691261230
1.0766682955
1.0832921411
1.0892990499
1.0950614748
1.1009903039
1.1074841118
1.1148550847
1.1232303897
1.1324624910
1.1421102350
1.1515268839
1.1600393285
1.1671421162
1.1726079046
1.1764839576
1.1790110041
1.1805151758
1.1813188859
1.1816904680
1.1818255518
1.1818502068
1.1818372732
1.1818237325
1.1815410656
1.3547490836
1.3516334220
1.3511571499
1.3502058934
1.3487841104
1.3468987231
1.3445598335
1.3417822427
1.3385826538
1.3349767251
1.3309747465
1.3265695885
1.3217204702
1.3163284791
1.3101917071
1.3029345480
1.2938861525
1.2818470932
1.2646242167
1.2380038991
1.1933232790
1.1124242088
0.9230611951
0.9647404928
0.9743817432
0.9793166125
0.9896454797
1.0001771937
1.0114309974
1.0231721098
1.0348821923
1.0460506528
1.0563056534
1.0654505307
1.0734533658
1.0804165528
1.0865546769
1.0921705032
1.0976365758
1.1033639791
1.1097491313
1.1170954505
1.1255096385
1.1348106357
1.1445175010
1.1539500139
1.1624191631
1.1694242251
1.1747566139
1.1784860135
1.1808715543
1.1822506709
1.1829504756
1.1832396741
1.1833122129
1.1832919715
1.1832500161
1.1832222305
1.1829256399
1.3552842133
1.3521420741
1.3516494090
1.3506638210
1.3491868238
1.3472209138
1.3447702877
1.3418424654
1.3384452169
1.3345834034
1.3302547047
1.3254373552
1.3200744661
1.3140518710
1.3071577439
1.2990230627
1.2890263541
1.2761193944
1.2585097841
1.2330315987
1.1938397353
1.1315783572
1.0077652015
1.0038058169
0.9973238989
0.9958041756
1.0012239598
1.0096122523
1.0197337757
1.0306429920
1.0415827205
1.0519936638
1.0615182098
1.0699831859
1.0773707424
1.0838006204
1.0894923537
1.0947472378
1.0999361726
1.1054691608
1.1117399889
1.1190442984
1.1274715598
1.1368128442
1.1465543580
1.1559884458
1.1644132063
1.1713317731
1.1765505632
1.1801569898
1.1824245805
1.1836995141
1.1843124809
1.1845324402
1.1845520553
1.1844935710
1.1844267614
1.1843867347
1.1840778302
1.3550160451
1.3518693137
1.3513685394
1.3503654781
1.3488592770
1.3468489376
1.3443341179
1.3413169699
1.3377990363
1.3337782066
1.3292449050
1.3241702453
1.3184915900
1.3120932383
1.3047706415
1.2961803144
1.2857640224
1.2726137256
1.2552440417
1.2311836051
1.1962178377
1.1447663142
1.0569420087
1.0325654319
1.0168536190
1.0103797832
1.0120156559
1.0182885203
1.0271381949
1.0371351698
1.0473062423
1.0570182016
1.0658994975
1.0737816246
1.0806524570
1.0866314149
1.0919459149
1.0968949703
1.1018467838
1.1072094174
1.1133738425
1.1206292237
1.1290515203
1.1384102948
1.1481665784
1.1575918398
1.1659744749
1.1728205854
1.1779478425
1.1814568224
1.1836316372
1.1848248177
1.1853695907
1.1855350333
1.1855128333
1.1854240310
1.1853374651
1.1852876917
1.1849687050
1.3539502638
1.3508228162
1.3503231237
1.3493212957
1.3478147321
1.3457998863
1.3432731670
1.3402329870
1.3366767248
1.3325978717
1.3279826932
1.3227988655
1.3169821096
1.3104190568
1.3029147537
1.2941488613
1.2836120409
1.2704942598
1.2535084765
1.2306025401
1.1984904090
1.1533743145
1.0848435955
1.0518033595
1.0309201731
1.0210638466
1.0201110825
1.0247882955
1.0326355647
1.0419213398
1.0515139686
1.0607153531
1.0691345225
1.0766005554
1.0831029294
1.0887598778
1.0938011875
1.0985264526
1.1033017485
1.1085335753
1.1146108372
1.1218182583
1.1302227003
1.1395793047
1.1493322835
1.1587392659
1.1670823666
1.1738698746
1.1789270994
1.1823634187
1.1844699400
1.1856033227
1.1860983650
1.1862241070
1.1861714834
1.1860606430
1.1859597306
1.1859028848
1.1855763603
1.3521229709
1.3490384084
1.3485486877
1.3475661914
1.3460871591
1.3441063630
1.3416180798
1.3386182800
1.3351016666
1.3310589686
1.3264739154
1.3213122067
1.3155087864
1.3089519177
1.3014524345
1.2927031092
1.2822209646
1.2692465746
1.2525912914
1.2304035344
1.1998295303
1.1578112566
1.0979830560
1.0619021113
1.0387717560
1.0272334866
1.0249477402
1.0287395649
1.0359990315
1.0448583426
1.0541063380
1.0630085755
1.0711607589
1.0783881652
1.0846792949
1.0901515647
1.0950335097
1.0996253937
1.1042916818
1.1094376674
1.1154509317
1.1226138360