<VTKFile type="UnstructuredGrid" version="0.1">
	<UnstructuredGrid>
		<Piece NumberOfPoints="13548" NumberOfCells="3387">
			<CellData>
				<DataArray type="Int32" Name="ghost" NumberOfComponents="1" Format="ascii">
1
1
1
1
1
1
1
1
1
1
1
1
1
1
1
1
1
1
1
1
1
1
1
1
1
1
1
1
1
1
1
1
1
1
1
1
1
1
1
1
1
1
1
1
1
1
1
1
1
1
1
1
1
1
1
1
1
1
0
0
0
0
0
0
0
0
0
0
0
0
0
0
0
0
0
0
0
0
1
1
0
0
0
0
0
0
0
0
0
0
0
0
0
0
0
0
0
0
0
0
0
0
0
0
0
0
0
0
0
0
0
0
0
1
1
0
0
0
0
0
0
0
0
0
0
0
0
0
0
0
0
0
0
0
0
1
1
0
0
0
0
0
0
0
0
0
0
0
0
0
0
0
0
0
0
0
0
0
0
0
0
0
0
0
0
0
0
0
0
0
1
1
0
0
0
0
0
0
0
0
0
0
0
0
0
0
0
0
0
0
0
0
1
1
0
0
0
0
0
0
0
0
0
0
0
0
0
0
0
0
0
0
0
0
0
0
0
0
0
0
0
0
0
0
0
0
0
1
1
0
0
0
0
0
0
0
0
0
0
0
0
0
0
0
0
0
0
0
0
1
1
0
0
0
0
0
0
0
0
0
0
0
0
0
0
0
0
0
0
0
0
0
0
0
0
0
0
0
0
0
0
0
0
0
1
1
0
0
0
0
0
0
0
0
0
0
0
0
0
0
0
0
0
0
0
0
1
1
0
0
0
0
0
0
0
0
0
0
0
0
0
0
0
0
0
0
0
0
0
0
0
0
0
0
0
0
0
0
0
0
0
1
1
0
0
0
0
0
0
0
0
0
0
0
0
0
0
0
0
0
0
0
0
1
1
0
0
0
0
0
0
0
0
0
0
0
0
0
0
0
0
0
0
0
0
0
0
0
0
0
0
0
0
0
0
0
0
0
1
1
0
0
0
0
0
0
0
0
0
0
0
0
0
0
0
0
0
0
0
0
1
1
0
0
0
0
0
0
0
0
0
0
0
0
0
0
0
0
0
0
0
0
0
0
0
0
0
0
0
0
0
0
0
0
0
1
1
0
0
0
0
0
0
0
0
0
0
0
0
0
0
0
0
0
0
0
0
1
1
0
0
0
0
0
0
0
0
0
0
0
0
0
0
0
0
0
0
0
0
0
0
0
0
0
0
0
0
0
0
0
0
0
1
1
0
0
0
0
0
0
0
0
0
0
0
0
0
0
0
0
0
0
0
0
1
1
0
0
0
0
0
0
0
0
0
0
0
0
0
0
0
0
0
0
0
0
0
0
0
0
0
0
0
0
0
0
0
0
0
1
1
0
0
0
0
0
0
0
0
0
0
0
0
0
0
0
0
0
0
0
0
1
1
0
0
0
0
0
0
0
0
0
0
0
0
0
0
0
0
0
0
0
0
0
0
0
0
0
0
0
0
0
0
0
0
0
1
1
0
0
0
0
0
0
0
0
0
0
0
0
0
0
0
0
0
0
0
0
1
1
0
0
0
0
0
0
0
0
0
0
0
0
0
0
0
0
0
0
0
0
0
0
0
0
0
0
0
0
0
0
0
0
0
1
1
0
0
0
0
0
0
0
0
0
0
0
0
0
0
0
0
0
0
0
0
1
1
0
0
0
0
0
0
0
0
0
0
0
0
0
0
0
0
0
0
0
0
0
0
0
0
0
0
0
0
0
0
0
0
0
1
1
0
0
0
0
0
0
0
0
0
0
0
0
0
0
0
0
0
0
0
0
1
1
0
0
0
0
0
0
0
0
0
0
0
0
0
0
0
0
0
0
0
0
0
0
0
0
0
0
0
0
0
0
0
0
0
1
1
0
0
0
0
0
0
0
0
0
0
0
0
0
0
0
0
0
0
0
0
1
1
0
0
0
0
0
0
0
0
0
0
0
0
0
0
0
0
0
0
0
0
0
0
0
0
0
0
0
0
0
0
0
0
0
1
1
0
0
0
0
0
0
0
0
0
0
0
0
0
0
0
0
0
0
0
0
1
1
0
0
0
0
0
0
0
0
0
0
0
0
0
0
0
0
0
0
0
0
0
0
0
0
0
0
0
0
0
0
0
0
0
1
1
0
0
0
0
0
0
0
0
0
0
0
0
0
0
0
0
0
0
0
0
1
1
0
0
0
0
0
0
0
0
0
0
0
0
0
0
0
0
0
0
0
0
0
0
0
0
0
0
0
0
0
0
0
0
0
1
1
0
0
0
0
0
0
0
0
0
0
0
0
0
0
0
0
0
0
0
0
1
1
0
0
0
0
0
0
0
0
0
0
0
0
0
0
0
0
0
0
0
0
0
0
0
0
0
0
0
0
0
0
0
0
0
1
1
0
0
0
0
0
0
0
0
0
0
0
0
0
0
0
0
0
0
0
0
1
1
0
0
0
0
0
0
0
0
0
0
0
0
0
0
0
0
0
0
0
0
0
0
0
0
0
0
0
0
0
0
0
0
0
1
1
0
0
0
0
0
0
0
0
0
0
0
0
0
0
0
0
0
0
0
0
1
1
0
0
0
0
0
0
0
0
0
0
0
0
0
0
0
0
0
0
0
0
0
0
0
0
0
0
0
0
0
0
0
0
0
1
1
0
0
0
0
0
0
0
0
0
0
0
0
0
0
0
0
0
0
0
0
1
1
0
0
0
0
0
0
0
0
0
0
0
0
0
0
0
0
0
0
0
0
0
0
0
0
0
0
0
0
0
0
0
0
0
1
1
0
0
0
0
0
0
0
0
0
0
0
0
0
0
0
0
0
0
0
0
1
1
0
0
0
0
0
0
0
0
0
0
0
0
0
0
0
0
0
0
0
0
0
0
0
0
0
0
0
0
0
0
0
0
0
1
1
0
0
0
0
0
0
0
0
0
0
0
0
0
0
0
0
0
0
0
0
1
1
0
0
0
0
0
0
0
0
0
0
0
0
0
0
0
0
0
0
0
0
0
0
0
0
0
0
0
0
0
0
0
0
0
1
1
0
0
0
0
0
0
0
0
0
0
0
0
0
0
0
0
0
0
0
0
1
1
0
0
0
0
0
0
0
0
0
0
0
0
0
0
0
0
0
0
0
0
0
0
0
0
0
0
0
0
0
0
0
0
0
1
1
0
0
0
0
0
0
0
0
0
0
0
0
0
0
0
0
0
0
0
0
1
1
0
0
0
0
0
0
0
0
0
0
0
0
0
0
0
0
0
0
0
0
0
0
0
0
0
0
0
0
0
0
0
0
0
1
1
0
0
0
0
0
0
0
0
0
0
0
0
0
0
0
0
0
0
0
0
0
1
1
0
0
0
0
0
0
0
0
0
0
0
0
0
0
0
0
0
0
0
0
0
0
0
0
0
0
0
0
0
0
0
0
0
0
1
1
0
0
0
0
0
0
0
0
0
0
0
0
0
0
0
0
0
0
0
0
0
0
0
0
0
0
0
0
0
0
0
0
0
0
0
0
0
0
0
0
0
0
0
0
0
0
0
0
0
0
0
0
0
0
0
0
0
1
1
0
0
0
0
0
0
0
0
0
0
0
0
0
0
0
0
0
0
0
0
0
0
0
0
0
0
0
0
0
0
0
0
0
0
0
0
0
0
0
0
0
0
0
0
0
0
0
0
0
0
0
0
0
0
0
0
0
1
1
0
0
0
0
0
0
0
0
0
0
0
0
0
0
0
0
0
0
0
0
0
0
0
0
0
0
0
0
0
0
0
0
0
0
0
0
0
0
0
0
0
0
0
0
0
0
0
0
0
0
0
0
0
0
0
0
0
1
1
0
0
0
0
0
0
0
0
0
0
0
0
0
0
0
0
0
0
0
0
0
0
0
0
0
0
0
0
0
0
0
0
0
0
0
0
0
0
0
0
0
0
0
0
0
0
0
0
0
0
0
0
0
0
0
0
0
1
1
0
0
0
0
0
0
0
0
0
0
0
0
0
0
0
0
0
0
0
0
0
0
0
0
0
0
0
0
0
0
0
0
0
0
0
0
0
0
0
0
0
0
0
0
0
0
0
0
0
0
0
0
0
0
0
0
0
1
1
0
0
0
0
0
0
0
0
0
0
0
0
0
0
0
0
0
0
0
0
0
0
0
0
0
0
0
0
0
0
0
0
0
0
0
0
0
0
0
0
0
0
0
0
0
0
0
0
0
0
0
0
0
0
0
0
0
1
1
0
0
0
0
0
0
0
0
0
0
0
0
0
0
0
0
0
0
0
0
0
0
0
0
0
0
0
0
0
0
0
0
0
0
0
0
0
0
0
0
0
0
0
0
0
0
0
0
0
0
0
0
0
0
0
0
0
1
1
0
0
0
0
0
0
0
0
0
0
0
0
0
0
0
0
0
0
0
0
0
0
0
0
0
0
0
0
0
0
0
0
0
0
0
0
0
0
0
0
0
0
0
0
0
0
0
0
0
0
0
0
0
0
0
0
0
1
1
0
0
0
0
0
0
0
0
0
0
0
0
0
0
0
0
0
0
0
0
0
0
0
0
0
0
0
0
0
0
0
0
0
0
0
0
0
0
0
0
0
0
0
0
0
0
0
0
0
0
0
0
0
0
0
0
0
1
1
0
0
0
0
0
0
0
0
0
0
0
0
0
0
0
0
0
0
0
0
0
0
0
0
0
0
0
0
0
0
0
0
0
0
0
0
0
0
0
0
0
0
0
0
0
0
0
0
0
0
0
0
0
0
0
0
0
1
1
0
0
0
0
0
0
0
0
0
0
0
0
0
0
0
0
0
0
0
0
0
1
1
0
0
0
0
0
0
0
0
0
0
0
0
0
0
0
0
0
0
0
0
0
0
0
0
0
0
0
0
0
0
0
0
0
0
1
1
0
0
0
0
0
0
0
0
0
0
0
0
0
0
0
0
0
0
0
0
1
1
0
0
0
0
0
0
0
0
0
0
0
0
0
0
0
0
0
0
0
0
0
0
0
0
0
0
0
0
0
0
0
0
0
1
1
0
0
0
0
0
0
0
0
0
0
0
0
0
0
0
0
0
0
0
0
1
1
0
0
0
0
0
0
0
0
0
0
0
0
0
0
0
0
0
0
0
0
0
0
0
0
0
0
0
0
0
0
0
0
0
1
1
0
0
0
0
0
0
0
0
0
0
0
0
0
0
0
0
0
0
0
0
1
1
0
0
0
0
0
0
0
0
0
0
0
0
0
0
0
0
0
0
0
0
0
0
0
0
0
0
0
0
0
0
0
0
0
1
1
0
0
0
0
0
0
0
0
0
0
0
0
0
0
0
0
0
0
0
0
1
1
0
0
0
0
0
0
0
0
0
0
0
0
0
0
0
0
0
0
0
0
0
0
0
0
0
0
0
0
0
0
0
0
0
1
1
0
0
0
0
0
0
0
0
0
0
0
0
0
0
0
0
0
0
0
0
1
1
0
0
0
0
0
0
0
0
0
0
0
0
0
0
0
0
0
0
0
0
0
0
0
0
0
0
0
0
0
0
0
0
0
1
1
0
0
0
0
0
0
0
0
0
0
0
0
0
0
0
0
0
0
0
0
1
1
0
0
0
0
0
0
0
0
0
0
0
0
0
0
0
0
0
0
0
0
0
0
0
0
0
0
0
0
0
0
0
0
0
1
1
0
0
0
0
0
0
0
0
0
0
0
0
0
0
0
0
0
0
0
0
1
1
0
0
0
0
0
0
0
0
0
0
0
0
0
0
0
0
0
0
0
0
0
0
0
0
0
0
0
0
0
0
0
0
0
1
1
0
0
0
0
0
0
0
0
0
0
0
0
0
0
0
0
0
0
0
0
1
1
0
0
0
0
0
0
0
0
0
0
0
0
0
0
0
0
0
0
0
0
0
0
0
0
0
0
0
0
0
0
0
0
0
1
1
0
0
0
0
0
0
0
0
0
0
0
0
0
0
0
0
0
0
0
0
1
1
0
0
0
0
0
0
0
0
0
0
0
0
0
0
0
0
0
0
0
0
0
0
0
0
0
0
0
0
0
0
0
0
0
1
1
0
0
0
0
0
0
0
0
0
0
0
0
0
0
0
0
0
0
0
0
1
1
0
0
0
0
0
0
0
0
0
0
0
0
0
0
0
0
0
0
0
0
0
0
0
0
0
0
0
0
0
0
0
0
0
1
1
0
0
0
0
0
0
0
0
0
0
0
0
0
0
0
0
0
0
0
0
1
1
0
0
0
0
0
0
0
0
0
0
0
0
0
0
0
0
0
0
0
0
0
0
0
0
0
0
0
0
0
0
0
0
0
1
1
0
0
0
0
0
0
0
0
0
0
0
0
0
0
0
0
0
0
0
0
1
1
0
0
0
0
0
0
0
0
0
0
0
0
0
0
0
0
0
0
0
0
0
0
0
0
0
0
0
0
0
0
0
0
0
1
1
0
0
0
0
0
0
0
0
0
0
0
0
0
0
0
0
0
0
0
0
1
1
0
0
0
0
0
0
0
0
0
0
0
0
0
0
0
0
0
0
0
0
0
0
0
0
0
0
0
0
0
0
0
0
0
1
1
0
0
0
0
0
0
0
0
0
0
0
0
0
0
0
0
0
0
0
0
1
1
0
0
0
0
0
0
0
0
0
0
0
0
0
0
0
0
0
0
0
0
0
0
0
0
0
0
0
0
0
0
0
0
0
1
1
0
0
0
0
0
0
0
0
0
0
0
0
0
0
0
0
0
0
0
0
1
1
0
0
0
0
0
0
0
0
0
0
0
0
0
0
0
0
0
0
0
0
0
0
0
0
0
0
0
0
0
0
0
0
0
1
1
0
0
0
0
0
0
0
0
0
0
0
0
0
0
0
0
0
0
0
0
1
1
0
0
0
0
0
0
0
0
0
0
0
0
0
0
0
0
0
0
0
0
0
0
0
0
0
0
0
0
0
0
0
0
0
1
1
0
0
0
0
0
0
0
0
0
0
0
0
0
0
0
0
0
0
0
0
1
1
0
0
0
0
0
0
0
0
0
0
0
0
0
0
0
0
0
0
0
0
0
0
0
0
0
0
0
0
0
0
0
0
0
1
1
0
0
0
0
0
0
0
0
0
0
0
0
0
0
0
0
0
0
0
0
1
1
0
0
0
0
0
0
0
0
0
0
0
0
0
0
0
0
0
0
0
0
0
0
0
0
0
0
0
0
0
0
0
0
0
1
1
0
0
0
0
0
0
0
0
0
0
0
0
0
0
0
0
0
0
0
0
1
1
0
0
0
0
0
0
0
0
0
0
0
0
0
0
0
0
0
0
0
0
0
0
0
0
0
0
0
0
0
0
0
0
0
1
1
0
0
0
0
0
0
0
0
0
0
0
0
0
0
0
0
0
0
0
0
1
1
0
0
0
0
0
0
0
0
0
0
0
0
0
0
0
0
0
0
0
0
0
0
0
0
0
0
0
0
0
0
0
0
0
1
1
0
0
0
0
0
0
0
0
0
0
0
0
0
0
0
0
0
0
0
0
1
1
0
0
0
0
0
0
0
0
0
0
0
0
0
0
0
0
0
0
0
0
0
0
0
0
0
0
0
0
0
0
0
0
0
1
1
1
1
1
1
1
1
1
1
1
1
1
1
1
1
1
1
1
1
1
1
1
1
1
1
1
1
1
1
1
1
1
1
1
1
1
1
1
1
1
1
1
1
1
1
1
1
1
1
1
1
1
1
1
1
1
1
				</DataArray>
				<DataArray type="Float64" Name="h" NumberOfComponents="1" Format="ascii">
1.4999127416
1.4998336514
1.4997403043
1.4995359118
1.4991895643
1.4986650593
1.4979304673
1.4969670237
1.4957750615
1.4943760137
1.4928104066
1.4911327699
1.4894055150
1.4876929355
1.4860563146
1.4845509319
1.4832243524
1.4821158931
1.4812569057
1.4806709313
1.4803738775
1.4803738775
1.0014706091
1.0019868786
1.0019006432
1.0017379562
1.0015169642
1.0012613561
1.0009966379
1.0007461349
1.0005275918
1.0003511805
1.0002192876
1.0001279987
1.0000695866
1.0000351011
1.0000163621
1.0000070179
1.0000027566
1.0000009863
1.0000003196
1.0000000931
1.0000000242
1.0000000056
1.0000000011
1.0000000002
1.0000000000
1.0000000000
1.0000000000
1.0000000000
1.0000000000
1.0000000000
1.0000000000
1.0000000000
1.0000000000
1.0000000000
1.0000000000
1.4998336514
1.4997004927
1.4995611201
1.4992645212
1.4987806781
1.4980769383
1.4971286168
1.4959276837
1.4944872606
1.4928416336
1.4910424033
1.4891522089
1.4872382945
1.4853668295
1.4835987161
1.4819874235
1.4805779876
1.4794070459
1.4785035187
1.4778889830
1.4775779905
1.4803738775
1.0019868786
1.0026423135
1.0025356606
1.0023334109
1.0020563006
1.0017318983
1.0013906913
1.0010616400
1.0007680814
1.0005249286
1.0003377486
1.0002038898
1.0001150791
1.0000605112
1.0000295312
1.0000133234
1.0000055332
1.0000021053
1.0000007301
1.0000002294
1.0000000648
1.0000000164
1.0000000036
1.0000000007
1.0000000001
1.0000000000
1.0000000000
1.0000000000
1.0000000000
1.0000000000
1.0000000000
1.0000000000
1.0000000000
1.0000000000
1.0000000000
1.4997081730
1.4995099709
1.4993274999
1.4989490047
1.4983526507
1.4975168577
1.4964293537
1.4950939879
1.4935334894
1.4917883999
1.4899129652
1.4879693293
1.4860220190
1.4841332602
1.4823596410
1.4807505558
1.4793475453
1.4781844888
1.4772883076
1.4766792656
1.4763711760
1.4791154482
1.0028594490
1.0036916365
1.0035576646
1.0033017243
1.0029467634
1.0025241799
1.0020701046
1.0016207578
1.0012076322
1.0008535312
1.0005703258
1.0003590779
1.0002123081
1.0001174847
1.0000606331
1.0000290785
1.0000129082
1.0000052814
1.0000019825
1.0000006792
1.0000002111
1.0000000591
1.0000000148
1.0000000033
1.0000000006
1.0000000001
1.0000000000
1.0000000000
1.0000000000
1.0000000000
1.0000000000
1.0000000000
1.0000000000
1.0000000000
1.0000000000
1.4994124584
1.4990767071
1.4988108791
1.4982748978
1.4974639931
1.4963787942
1.4950309131
1.4934461757
1.4916644590
1.4897370573
1.4877224290
1.4856813986
1.4836733254
1.4817531657
1.4799696269
1.4783646724
1.4769734607
1.4758248288
1.4749420478
1.4743429998
1.4740401793
1.4766876971
1.0047553815
1.0059328440
1.0057461353
1.0053858888
1.0048781572
1.0042603139
1.0035780621
1.0028808393
1.0022159933
1.0016227519
1.0011272444
1.0007401813
1.0004578546
1.0002658985
1.0001444841
1.0000732030
1.0000344546
1.0000150061
1.0000060223
1.0000022167
1.0000007444
1.0000002268
1.0000000622
1.0000000153
1.0000000033
1.0000000006
1.0000000001
1.0000000000
1.0000000000
1.0000000000
1.0000000000
1.0000000000
1.0000000000
1.0000000000
1.0000000000
1.4988598176
1.4983028998
1.4979202638
1.4971652459
1.4960592512
1.4946355233
1.4929389954
1.4910245451
1.4889534930
1.4867897131
1.4845958368
1.4824300870
1.4803446623
1.4783849374
1.4765893986
1.4749904125
1.4736148912
1.4724851528
1.4716197694
1.4710336036
1.4707375378
1.4732538004
1.0079317571
1.0095957520
1.0093363866
1.0088308503
1.0081066706
1.0072059562
1.0061841658
1.0051065926
1.0040421905
1.0030553198
1.0021967659
1.0014969052
1.0009633346
1.0005835606
1.0003316691
1.0001762885
1.0000873322
1.0000401794
1.0000171026
1.0000067073
1.0000024125
1.0000007918
1.0000002357
1.0000000632
1.0000000152
1.0000000032
1.0000000006
1.0000000001
1.0000000000
1.0000000000
1.0000000000
1.0000000000
1.0000000000
1.0000000000
1.0000000000
1.4979290297
1.4970586705
1.4965376140
1.4955248651
1.4940754194
1.4922629742
1.4901719863
1.4878899770
1.4855008241
1.4830804088
1.4806941533
1.4783961196
1.4762299220
1.4742301425
1.4724240218
1.4708334578
1.4694763825
1.4683680337
1.4675219402
1.4669498320
1.4666610520
1.4690229383
1.0126602184
1.0148912368
1.0145505014
1.0138794447
1.0129022680
1.0116599794
1.0102122201
1.0086366532
1.0070244732
1.0054713595
1.0040642898
1.0028679773
1.0019156173
1.0012071181
1.0007153998
1.0003975568
1.0002065201
1.0000999614
1.0000449287
1.0000186816
1.0000071570
1.0000025149
1.0000008065
1.0000002347
1.0000000615
1.0000000144
1.0000000030
1.0000000005
1.0000000001
1.0000000000
1.0000000000
1.0000000000
1.0000000000
1.0000000000
1.0000000000
1.4964782488
1.4952019645
1.4945373748
1.4932586701
1.4914576108
1.4892514194
1.4867659738
1.4841217094
1.4814239367
1.4787586981
1.4761923521
1.4737734107
1.4715361298
1.4695040365
1.4676931787
1.4661151708
1.4647791783
1.4636935924
1.4628671998
1.4623090015
1.4620272640
1.4642204577
1.0190952371
1.0218746868
1.0214610442
1.0206373160
1.0194170702
1.0178302235
1.0159287002
1.0137906110
1.0115206574
1.0092440837
1.0070917988
1.0051795077
1.0035875264
1.0023486165
1.0014488822
1.0008399451
1.0004563121
1.0002316391
1.0001095406
1.0000480951
1.0000195345
1.0000073106
1.0000025097
1.0000007864
1.0000002236
1.0000000573
1.0000000131
1.0000000027
1.0000000005
1.0000000001
1.0000000000
1.0000000000
1.0000000000
1.0000000000
1.0000000000
1.4943650548
1.4926020197
1.4918075594
1.4902885034
1.4881705353
1.4856112023
1.4827747875
1.4798119996
1.4768473210
1.4739751123
1.4712613570
1.4687483444
1.4664609298
1.4644120308
1.4626072326
1.4610486867
1.4597375872
1.4586762361
1.4578694515
1.4573243444
1.4570489477
1.4590633313
1.0271416652
1.0303323549
1.0298737227
1.0289489396
1.0275534642
1.0256950847
1.0234026083
1.0207352129
1.0177905965
1.0147075193
1.0116558648
1.0088126418
1.0063294791
1.0043028862
1.0027603861
1.0016667573
1.0009449398
1.0005017399
1.0002488541
1.0001149546
1.0000492963
1.0000195559
1.0000071483
1.0000023971
1.0000007338
1.0000002039
1.0000000511
1.0000000115
1.0000000023
1.0000000004
1.0000000001
1.0000000000
1.0000000000
1.0000000000
1.0000000000
1.4914685361
1.4891608270
1.4882675063
1.4865647148
1.4842032273
1.4813714581
1.4782642904
1.4750575294
1.4718920799
1.4688695596
1.4660554916
1.4634863915
1.4611784668
1.4591349612
1.4573520191
1.4558233544
1.4545431776
1.4535086795
1.4527217575
1.4521888108
1.4519188572
1.4537436458
1.0363951007
1.0397640802
1.0393030482
1.0383592208
1.0369052720
1.0349197398
1.0323959329
1.0293538687
1.0258559511
1.0220223980
1.0180355656
1.0141240033
1.0105243825
1.0074311436
1.0049559296
1.0031139364
1.0018393996
1.0010193475
1.0005288076
1.0002561666
1.0001155514
1.0000483847
1.0000187416
1.0000066894
1.0000021907
1.0000006550
1.0000001778
1.0000000435
1.0000000095
1.0000000019
1.0000000003
1.0000000000
1.0000000000
1.0000000000
1.0000000000
1.4877082337
1.4848279833
1.4838793361
1.4820720515
1.4795690334
1.4765754821
1.4733052263
1.4699517571
1.4666691641
1.4635660237
1.4607085927
1.4581292363
1.4558370288
1.4538267990
1.4520863007
1.4506017395
1.4493612446
1.4483578759
1.4475917934
1.4470701581
1.4468046101
1.4484247216
1.0462097211
1.0494925143
1.0490756447
1.0482038612
1.0468265111
1.0448932642
1.0423593506
1.0391947693
1.0354025396
1.0310455644
1.0262713049
1.0213187383
1.0164929220
1.0121042465
1.0083951680
1.0054878236
1.0033743948
1.0019484919
1.0010548397
1.0005343317
1.0002526761
1.0001112485
1.0000454647
1.0000171877
1.0000059881
1.0000019144
1.0000005589
1.0000001482
1.0000000354
1.0000000076
1.0000000014
1.0000000002
1.0000000000
1.0000000000
1.0000000000
1.4830549988
1.4796057908
1.4786512823
1.4768300528
1.4743029052
1.4712757831
1.4679675691
1.4645801957
1.4612767826
1.4581726254
1.4553365792
1.4527992696
1.4505646936
1.4486207117
1.4469476518
1.4455249422
1.4443353617
1.4433687629
1.4426248649
1.4421134007
1.4418508171
1.4432455787
1.0558756022
1.0588492955
1.0585165338
1.0577941646
1.0566100409
1.0548920228
1.0525662613
1.0495579975
1.0458044808
1.0412847159
1.0360605724
1.0303146627
1.0243603581
1.0185987374
1.0134268528
1.0091354773
1.0058460371
1.0035138679
1.0019816222
1.0010471047
1.0005175371
1.0002387525
1.0001025376
1.0000408743
1.0000150735
1.0000051232
1.0000015981
1.0000004553
1.0000001179
1.0000000275
1.0000000058
1.0000000011
1.0000000002
1.0000000000
1.0000000000
1.4775309425
1.4735439464
1.4726326805
1.4708884579
1.4684572084
1.4655303843
1.4623177015
1.4590190890
1.4558011684
1.4527847487
1.4500427657
1.4476065285
1.4454771343
1.4436369698
1.4420598508
1.4407190765
1.4395927692
1.4386685601
1.4379472427
1.4374434010
1.4371812463
1.4383260741
1.0648097597
1.0673355082
1.0671159232
1.0665953672
1.0656806125
1.0642867195
1.0623264841
1.0596992912
1.0562921785
1.0520012804
1.0467755228
1.0406772933
1.0339382727
1.0269679036
1.0202839714
1.0143782214
1.0095801268
1.0059922237
1.0035162350
1.0019344540
1.0009967431
1.0004802835
1.0002159766
1.0000904097
1.0000351297
1.0000126286
1.0000041846
1.0000012729
1.0000003537
1.0000000893
1.0000000204
1.0000000042
1.0000000008
1.0000000001
1.0000000000
1.4712016603
1.4667288392
1.4659051785
1.4643215462
1.4620994392
1.4594034348
1.4564212227
1.4533398960
1.4503224671
1.4474921529
1.4449259072
1.4426572044
1.4406860059
1.4389906514
1.4375394866
1.4363005646
1.4352483374
1.4343695226
1.4336679003
1.4331658274
1.4328993168
1.4337705392
1.0726532089
1.0746747793
1.0745900741
1.0743029487
1.0736947397
1.0726737248
1.0711543457
1.0690331855
1.0661760587
1.0624239300
1.0576238184
1.0516910914
1.0446972643
1.0369439455
1.0289641006
1.0214111294
1.0148677884
1.0096809329
1.0059083068
1.0033796874
1.0018115689
1.0009092274
1.0004266927
1.0001868607
1.0000761781
1.0000288276
1.0000100936
1.0000032582
1.0000009657
1.0000002616
1.0000000644
1.0000000143
1.0000000029
1.0000000006
1.0000000002
1.4641642998
1.4592712481
1.4585729428
1.4572225667
1.4553113586
1.4529683848
1.4503488532
1.4476165427
1.4449222571
1.4423860435
1.4400863476
1.4380585089
1.4363022442
1.4347931986
1.4334957490
1.4323742981
1.4314013490
1.4305646333
1.4298733654
1.4293613506
1.4290818624
1.4296641221
1.0792529953
1.0807688085
1.0808413696
1.0808119442
1.0805259325
1.0798857284
1.0788168909
1.0772314166
1.0750027080
1.0719555715
1.0678762128
1.0625554513
1.0558781632
1.0479426216
1.0391525749
1.0301970478
1.0218744800
1.0148396609
1.0094211541
1.0055994614
1.0031173816
1.0016258839
1.0007939123
1.0003624538
1.0001544198
1.0000612450
1.0000225492
1.0000076828
1.0000024137
1.0000006964
1.0000001837
1.0000000441
1.0000000096
1.0000000022
1.0000000007
1.4565347630
1.4512950537
1.4507535645
1.4496984357
1.4481880551
1.4463108573
1.4441816954
1.4419313059
1.4396884433
1.4375618159
1.4356259596
1.4339155878
1.4324300504
1.4311438004
1.4300196891
1.4290213177
1.4281221107
1.4273135406
1.4266131960
1.4260706857
1.4257637752
1.4260583504
1.0845844157
1.0856187091
1.0858802593
1.0861394809
1.0861896006
1.0859238660
1.0852824864
1.0842027123
1.0825850892
1.0802720366
1.0770380756
1.0726044301
1.0667027025
1.0591987883
1.0502504301
1.0404093764
1.0305510458
1.0216133529
1.0142828110
1.0088194217
1.0050945906
1.0027559719
1.0013965810
1.0006625788
1.0002939202
1.0001216751
1.0000468934
1.0000167793
1.0000055569
1.0000016972
1.0000004762
1.0000001222
1.0000000287
1.0000000072
1.0000000026
1.4484396186
1.4429315881
1.4425737220
1.4418677304
1.4408386950
1.4395317782
1.4380155766
1.4363787045
1.4347170094
1.4331173918
1.4316424527
1.4303218633
1.4291538671
1.4281139098
1.4271672632
1.4262812572
1.4254344318
1.4246254012
1.4238831730
1.4232778066
1.4229208964
1.4229523449
1.0886732115
1.0892601751
1.0897593828
1.0903547791
1.0907668562
1.0908748645
1.0906335911
1.0900083903
1.0889357095
1.0872960999
1.0848913455
1.0814327534
1.0765670668
1.0699690602
1.0615123473
1.0514674125
1.0405883318
1.0299582863
1.0206230007
1.0132347016
1.0079287805
1.0044426222
1.0023312201
1.0011460362
1.0005275344
1.0002270650
1.0000912118
1.0000341147
1.0000118477
1.0000038088
1.0000011296
1.0000003079
1.0000000774
1.0000000210
1.0000000081
1.4400123325
1.4343179432
1.4341677758
1.4338598112
1.4333862410
1.4327473883
1.4319605487
1.4310632672
1.4301067626
1.4291440376
1.4282160805
1.4273422416
1.4265192843
1.4257272781
1.4249397944
1.4241341581
1.4232992510
1.4224443154
1.4216121012
1.4208972513
1.4204569437
1.4202750265
1.0915510794
1.0917307714
1.0925408298
1.0935424991
1.0943609251
1.0948577320
1.0950012362
1.0947839051
1.0941791469
1.0931135383
1.0914384547
1.0889006230
1.0851329792
1.0796996270
1.0722329860
1.0626647814
1.0514509448
1.0396049887
1.0284138085
1.0189609261
1.0117804542
1.0068308506
1.0037051035
1.0018826019
1.0008964106
1.0003997208
1.0001666819
1.0000648740
1.0000235114
1.0000079129
1.0000024658
1.0000007093
1.0000001894
1.0000000553
1.0000000228
1.4313919346
1.4255966427
1.4256768665
1.4258128801
1.4259641213
1.4260841866
1.4261336533
1.4260895508
1.4259461293
1.4257098943
1.4253905557
1.4249927327
1.4245130393
1.4239419101
1.4232689843
1.4224890009
1.4216065533
1.4206440437
1.4196583490
1.4187710569
1.4181994107
1.4178741959
1.0932386699
1.0930566900
1.0942858109
1.0957915734
1.0970831797
1.0980045845
1.0985369458
1.0986974200
1.0984936990
1.0978982898
1.0968204511
1.0950683199
1.0923148675
1.0880969214
1.0818949647
1.0733363295
1.0624890883
1.0500856275
1.0374396411
1.0259892359
1.0167493456
1.0100457374
1.0056247158
1.0029475109
1.0014476303
1.0006664692
1.0002873901
1.0001159049
1.0000436323
1.0000152957
1.0000049805
1.0000015027
1.0000004232
1.0000001320
1.0000000577
1.4227247810
1.4169171888
1.4172493239
1.4178722794
1.4187117252
1.4196712425
1.4206479707
1.4215481666
1.4222968178
1.4228424615
1.4231560379
1.4232258549
1.4230525400
1.4226447951
1.4220171411
1.4211889945
1.4201848049
1.4190404311
1.4178238941
1.4166824940
1.4159107802
1.4155214654
1.0937254380
1.0932299254
1.0950394356
1.0971835606
1.0990450093
1.1004548330
1.1014058576
1.1019367946
1.1020862031
1.1018694377
1.1012538737
1.1001197355
1.0982123406
1.0951062580
1.0902261197
1.0829865321
1.0730790194
1.0608204673
1.0473125201
1.0341598619
1.0228404519
1.0141667836
1.0081800851
1.0044128243
1.0022297521
1.0010565136
1.0004693983
1.0001953690
1.0000760555
1.0000276372
1.0000093537
1.0000029429
1.0000008689
1.0000002870
1.0000001318
1.4141646386
1.4084348064
1.4090381203
1.4101855417
1.4117662884
1.4136286733
1.4155981050
1.4174994284
1.4191774807
1.4205145901
1.4214397937
1.4219277855
1.4219904083
1.4216637079
1.4209952690
1.4200345293
1.4188272655
1.4174197195
1.4158832677
1.4143833137
1.4133103555
1.4129311869
1.0929177848
1.0921516511
1.0947906338
1.0977639365
1.1003421958
1.1023510706
1.1037896167
1.1047137995
1.1051913913
1.1052791162
1.1050008573
1.1043112763
1.1030434638
1.1008513635
1.0971824819
1.0913456100
1.0827386099
1.0712333268
1.0575342589
1.0431676114
1.0299420542
1.0192034561
1.0114270202
1.0063364555
1.0032865147
1.0015980035
1.0007289851
1.0003119101
1.0001250308
1.0000468773
1.0000164074
1.0000053537
1.0000016472
1.0000005717
1.0000002741
1.4058688394
1.4003047529
1.4011941063
1.4028936612
1.4052517167
1.4080542026
1.4110455494
1.4139595272
1.4165533495
1.4186402470
1.4201100164
1.4209308727
1.4211349581
1.4207939639
1.4199940458
1.4188164698
1.4173261176
1.4155725085
1.4136164031
1.4116226964
1.4100920518
1.4097804475
1.0905219427
1.0895120058
1.0933913782
1.0974928396
1.1010367659
1.1038432647
1.1059022532
1.1072831418
1.1080878765
1.1084203911
1.1083637726
1.1079480371
1.1070997692
1.1055745481
1.1028965482
1.0983622556
1.0911873954
1.0808557694
1.0675874910
1.0526030725
1.0378251310
1.0250783740
1.0153704713
1.0087503772
1.0046494477
1.0023136771
1.0010802100
1.0004733748
1.0001945907
1.0000749377
1.0000269931
1.0000090863
1.0000028960
1.0000010487
1.0000005214
1.3979924957
1.3926748596
1.3938579247
1.3961219690
1.3992684819
1.4030128725
1.4070098915
1.4108956134
1.4143376771
1.4170840284
1.4189936561
1.4200384566
1.4202796739
1.4198300788
1.4188157785
1.4173474238
1.4155028681
1.4133235547
1.4108378105
1.4081720137
1.4059278470
1.4057191777
1.0857946713
1.0845414119
1.0904185618
1.0961956842
1.1011711644
1.1051311662
1.1080361367
1.1099802073
1.1111239327
1.1116405019
1.1116854315
1.1113690409
1.1107134179
1.1095847646
1.1076146142
1.1041550513
1.0983458916
1.0893864641
1.0770222406
1.0620164433
1.0461653259
1.0316219490
1.0199513170
1.0116490812
1.0063299553
1.0032159346
1.0015320187
1.0006852057
1.0002877129
1.0001133173
1.0000418102
1.0000144449
1.0000047421
1.0000017788
1.0000009116
1.3906790152
1.3856751026
1.3871496698
1.3899702118
1.3938849240
1.3985309778
1.4034672550
1.4082305464
1.4124036736
1.4156795065
1.4178986386
1.4190473643
1.4192225160
1.4185797199
1.4172828737
1.4154668222
1.4132139491
1.4105426741
1.4074166850
1.4038501539
1.4004558949
1.4003669234
1.0769523999
1.0754222621
1.0849808000
1.0936241617
1.1009291817
1.1066207974
1.1106744036
1.1132863176
1.1147456571
1.1153434826
1.1153347747
1.1149204865
1.1142185764
1.1132053566
1.1116313777
1.1089447969
1.1042918847
1.0966994054
1.0855141996
1.0709864293
1.0545846303
1.0385822822
1.0250400819
1.0149802086
1.0083118726
1.0043019365
1.0020852798
1.0009487492
1.0004054074
1.0001626280
1.0000611865
1.0000215897
1.0000072598
1.0000028016
1.0000014713
1.3840502192
1.3794080270
1.3811602760
1.3845060940
1.3891344729
1.3945986793
1.4003596590
1.4058591101
1.4106055819
1.4142507560
1.4166295322
1.4177506102
1.4177490309
1.4168223984
1.4151707828
1.4129528674
1.4102559500
1.4070699460
1.4032599119
1.3985945188
1.3933455771
1.3933874032
1.0592851798
1.0573946176
1.0756158760
1.0900085516
1.1012053152
1.1093139182
1.1146998272
1.1179083958
1.1194978884
1.1199489181
1.1196464151
1.1188884884
1.1178821026
1.1167021518
1.1152127147
1.1129730393
1.1091879004
1.1028063437
1.0928804323
1.0791732357
1.0627021049
1.0456502122
1.0304405680
1.0186396134
1.0105457518
1.0055494583
1.0027302259
1.0012597941
1.0005459233
1.0002221856
1.0000848774
1.0000304436
1.0000104293
1.0000041136
1.0000022015
1.3782009010
1.3739448339
1.3759494712
1.3797671292
1.3850235569
1.3911858512
1.3976196108
1.4036801414
1.4088144530
1.4126449753
1.4150070667
1.4159296696
1.4155766554
1.4141752800
1.4119532019
1.4090984954
1.4057404049
1.4019354408
1.3976286339
1.3925268145
1.3859404540
1.3861445716
1.0176225346
1.0151513646
1.0613051814
1.0881373647
1.1050253658
1.1155190815
1.1216404827
1.1247720710
1.1259019028
1.1257317207
1.1247616026
1.1233575607
1.1217829213
1.1201799238
1.1185019008
1.1164113032
1.1131941437
1.1077883909
1.0990528050
1.0863399278
1.0701776587
1.0524932663
1.0359036883
1.0224724900
1.0129460226
1.0069141505
1.0034446995
1.0016076114
1.0007042597
1.0002897678
1.0001119498
1.0000406379
1.0000141110
1.0000056538
1.0000030676
1.3731963167
1.3693253314
1.3715483377
1.3757685626
1.3815477423
1.3882691317
1.3952103042
1.4016517117
1.4069903530
1.4108245988
1.4129830082
1.4134899723
1.4124899101
1.4101563545
1.4066006829
1.4017841031
1.3954078549
1.3867145864
1.3740566110
1.3538425367
1.3177140818
1.2455910991
1.1541094738
1.1613325823
1.0960286219
1.1008524558
1.1131174207
1.1219077457
1.1282654100
1.1323256702
1.1343570791
1.1347644674
1.1339778604
1.1323799093
1.1302888205
1.1279720105
1.1256511574
1.1234735219
1.1214401239
1.1192931881
1.1164017906
1.1117330177
1.1040362179
1.0923501056
1.0767439592
1.0587946545
1.0411529160
1.0262838919
1.0153936447
1.0083297138
1.0041939847
1.0019748965
1.0008721906
1.0003616563
1.0001408109
1.0000515271
1.0000180519
1.0000073066
1.0000039998
1.3690719202
1.3655604853
1.3679637420
1.3725115577
1.3787055609
1.3858535167
1.3931583682
1.3998423019
1.4052682681
1.4090223961
1.4109334164
1.4110268096
1.4094401059
1.4063272055
1.4017654598
1.3956725465
1.3877177974
1.3771852631
1.3627223637
1.3418233364
1.3097073327
1.2578145743
1.1510292240
1.1587301947
1.1257243918
1.1235127750
1.1287393519
1.1340812119
1.1382272913
1.1407303475
1.1416080411
1.1411073676
1.1395558569
1.1372762688
1.1345561875
1.1316527810
1.1287952910
1.1261595093
1.1238011703
1.1215423214
1.1188407134
1.1147204090
1.1078867744
1.0971609939
1.0822278259
1.0642918001
1.0459188036
1.0298596921
1.0177461734
1.0097123615
1.0049329352
1.0023389229
1.0010389295
1.0004330085
1.0001694040
1.0000622833
1.0000219291
1.0000089244
1.0000049092
1.3658321332
1.3626333377
1.3651780016
1.3699795091
1.3764875804
1.3839474674
1.3915041764
1.3983392085
1.4037965806
1.4074609551
1.4091684761
1.4089528627
1.4069568355
1.4033374165
1.3981777052
1.3914147489
1.3827744202
1.3716833892
1.3571286080
1.3374047204
1.3096449590
1.2695442279
1.1972720074
1.1821692786
1.1551534820
1.1459403192
1.1443999675
1.1453504571
1.1466727164
1.1473663807
1.1470711425
1.1457753348
1.1436370791
1.1408769179
1.1377264786
1.1344175230
1.1311761272
1.1281958836
1.1255740067
1.1231977091
1.1206033505
1.1168784942
1.1107236202
1.1008206137
1.0865587698
1.0688034761
1.0499723138
1.0329928100
1.0198536649
1.0109692955
1.0056103395
1.0026738153
1.0011923232
1.0004984753
1.0001955136
1.0000720401
1.0000254149
1.0000103626
1.0000057101
1.3634537477
1.3605035897
1.3631518344
1.3681371744
1.3748686314
1.3825442794
1.3902680544
1.3971958229
1.4026633704
1.4062597612
1.4078310870
1.4074210724
1.4051809527
1.4012769901
1.3958068317
1.3887355537
1.3798453992
1.3686750221
1.3544341242
1.3358658188
1.3110148729
1.2771535027
1.2234890963
1.1992907026
1.1747263382
1.1619317397
1.1562614733
1.1540611670
1.1531778042
1.1523951712
1.1511299819
1.1491863034
1.1465877863
1.1434673043
1.1400048992
1.1364059139
1.1328884366
1.1296549482
1.1268303486
1.1243491409
1.1218086592
1.1183522136
1.1126928928
1.1034297850
1.0897435044
1.0722278246
1.0531414323
1.0355045192
1.0215754190
1.0120091202
1.0061746403
1.0029534846
1.0013202944
1.0005528845
1.0002170783
1.0000800295
1.0000282362
1.0000115091
1.0000063403
1.3618992425
1.3591213445
1.3618370994
1.3669412743
1.3738151274
1.3816255220
1.3894506371
1.3964320159
1.4019030556
1.4054583898
1.4069525990
1.4064373880
1.4040709242
1.4000272201
1.3944155709
1.3872213466
1.3782635400
1.3671474062
1.3532049244
1.3354088384
1.3122462582
1.2817304159
1.2378355741
1.2102303641
1.1864758633
1.1718580081
1.1638872581
1.1597689490
1.1574704574
1.1557107007
1.1537939154
1.1514146966
1.1485098216
1.1451526659
1.1414871492
1.1376994811
1.1340010902
1.1305990513
1.1276353953
1.1250752711
1.1225571461
1.1192646703
1.1139264949
1.1050970536
1.0918258490
1.0745201247
1.0553104326
1.0372565026
1.0227938956
1.0127521253
1.0065799884
1.0031547087
1.0014122528
1.0005918350
1.0002324227
1.0000856666
1.0000302037
1.0000122963
1.0000067670
1.3611329494
1.3584430744
1.3611920313
1.3663543472
1.3732972581
1.3811721771
1.3890449893
1.3960509853
1.4015233299
1.4050602102
1.4065209365
1.4059614704
1.4035436197
1.3994454231
1.3937820716
1.3865487876
1.3775815905
1.3665152917
1.3527342378
1.3353072251
1.3129055182
1.2838580160
1.2441646589
1.2154822962
1.1919520731
1.1765600729
1.1675680694
1.1625573774
1.1595806050
1.1573437322
1.1551057621
1.1525115535
1.1494560512
1.1459830229
1.1422180944
1.1383376813
1.1345496875
1.1310632554
1.1280286941
1.1254262444
1.1229150385
1.1196997387