<VTKFile type="UnstructuredGrid" version="0.1">
	<UnstructuredGrid>
		<Piece NumberOfPoints="13548" NumberOfCells="3387">
			<CellData>
				<DataArray type="Int32" Name="ghost" NumberOfComponents="1" Format="ascii">
1
1
1
1
1
1
1
1
1
1
1
1
1
1
1
1
1
1
1
1
1
1
1
1
1
1
1
1
1
1
1
1
1
1
1
1
1
1
1
1
1
1
1
1
1
1
1
1
1
1
1
1
1
1
1
1
1
1
0
0
0
0
0
0
0
0
0
0
0
0
0
0
0
0
0
0
0
0
1
1
0
0
0
0
0
0
0
0
0
0
0
0
0
0
0
0
0
0
0
0
0
0
0
0
0
0
0
0
0
0
0
0
0
1
1
0
0
0
0
0
0
0
0
0
0
0
0
0
0
0
0
0
0
0
0
1
1
0
0
0
0
0
0
0
0
0
0
0
0
0
0
0
0
0
0
0
0
0
0
0
0
0
0
0
0
0
0
0
0
0
1
1
0
0
0
0
0
0
0
0
0
0
0
0
0
0
0
0
0
0
0
0
1
1
0
0
0
0
0
0
0
0
0
0
0
0
0
0
0
0
0
0
0
0
0
0
0
0
0
0
0
0
0
0
0
0
0
1
1
0
0
0
0
0
0
0
0
0
0
0
0
0
0
0
0
0
0
0
0
1
1
0
0
0
0
0
0
0
0
0
0
0
0
0
0
0
0
0
0
0
0
0
0
0
0
0
0
0
0
0
0
0
0
0
1
1
0
0
0
0
0
0
0
0
0
0
0
0
0
0
0
0
0
0
0
0
1
1
0
0
0
0
0
0
0
0
0
0
0
0
0
0
0
0
0
0
0
0
0
0
0
0
0
0
0
0
0
0
0
0
0
1
1
0
0
0
0
0
0
0
0
0
0
0
0
0
0
0
0
0
0
0
0
1
1
0
0
0
0
0
0
0
0
0
0
0
0
0
0
0
0
0
0
0
0
0
0
0
0
0
0
0
0
0
0
0
0
0
1
1
0
0
0
0
0
0
0
0
0
0
0
0
0
0
0
0
0
0
0
0
1
1
0
0
0
0
0
0
0
0
0
0
0
0
0
0
0
0
0
0
0
0
0
0
0
0
0
0
0
0
0
0
0
0
0
1
1
0
0
0
0
0
0
0
0
0
0
0
0
0
0
0
0
0
0
0
0
1
1
0
0
0
0
0
0
0
0
0
0
0
0
0
0
0
0
0
0
0
0
0
0
0
0
0
0
0
0
0
0
0
0
0
1
1
0
0
0
0
0
0
0
0
0
0
0
0
0
0
0
0
0
0
0
0
1
1
0
0
0
0
0
0
0
0
0
0
0
0
0
0
0
0
0
0
0
0
0
0
0
0
0
0
0
0
0
0
0
0
0
1
1
0
0
0
0
0
0
0
0
0
0
0
0
0
0
0
0
0
0
0
0
1
1
0
0
0
0
0
0
0
0
0
0
0
0
0
0
0
0
0
0
0
0
0
0
0
0
0
0
0
0
0
0
0
0
0
1
1
0
0
0
0
0
0
0
0
0
0
0
0
0
0
0
0
0
0
0
0
1
1
0
0
0
0
0
0
0
0
0
0
0
0
0
0
0
0
0
0
0
0
0
0
0
0
0
0
0
0
0
0
0
0
0
1
1
0
0
0
0
0
0
0
0
0
0
0
0
0
0
0
0
0
0
0
0
1
1
0
0
0
0
0
0
0
0
0
0
0
0
0
0
0
0
0
0
0
0
0
0
0
0
0
0
0
0
0
0
0
0
0
1
1
0
0
0
0
0
0
0
0
0
0
0
0
0
0
0
0
0
0
0
0
1
1
0
0
0
0
0
0
0
0
0
0
0
0
0
0
0
0
0
0
0
0
0
0
0
0
0
0
0
0
0
0
0
0
0
1
1
0
0
0
0
0
0
0
0
0
0
0
0
0
0
0
0
0
0
0
0
1
1
0
0
0
0
0
0
0
0
0
0
0
0
0
0
0
0
0
0
0
0
0
0
0
0
0
0
0
0
0
0
0
0
0
1
1
0
0
0
0
0
0
0
0
0
0
0
0
0
0
0
0
0
0
0
0
1
1
0
0
0
0
0
0
0
0
0
0
0
0
0
0
0
0
0
0
0
0
0
0
0
0
0
0
0
0
0
0
0
0
0
1
1
0
0
0
0
0
0
0
0
0
0
0
0
0
0
0
0
0
0
0
0
1
1
0
0
0
0
0
0
0
0
0
0
0
0
0
0
0
0
0
0
0
0
0
0
0
0
0
0
0
0
0
0
0
0
0
1
1
0
0
0
0
0
0
0
0
0
0
0
0
0
0
0
0
0
0
0
0
1
1
0
0
0
0
0
0
0
0
0
0
0
0
0
0
0
0
0
0
0
0
0
0
0
0
0
0
0
0
0
0
0
0
0
1
1
0
0
0
0
0
0
0
0
0
0
0
0
0
0
0
0
0
0
0
0
1
1
0
0
0
0
0
0
0
0
0
0
0
0
0
0
0
0
0
0
0
0
0
0
0
0
0
0
0
0
0
0
0
0
0
1
1
0
0
0
0
0
0
0
0
0
0
0
0
0
0
0
0
0
0
0
0
1
1
0
0
0
0
0
0
0
0
0
0
0
0
0
0
0
0
0
0
0
0
0
0
0
0
0
0
0
0
0
0
0
0
0
1
1
0
0
0
0
0
0
0
0
0
0
0
0
0
0
0
0
0
0
0
0
1
1
0
0
0
0
0
0
0
0
0
0
0
0
0
0
0
0
0
0
0
0
0
0
0
0
0
0
0
0
0
0
0
0
0
1
1
0
0
0
0
0
0
0
0
0
0
0
0
0
0
0
0
0
0
0
0
1
1
0
0
0
0
0
0
0
0
0
0
0
0
0
0
0
0
0
0
0
0
0
0
0
0
0
0
0
0
0
0
0
0
0
1
1
0
0
0
0
0
0
0
0
0
0
0
0
0
0
0
0
0
0
0
0
1
1
0
0
0
0
0
0
0
0
0
0
0
0
0
0
0
0
0
0
0
0
0
0
0
0
0
0
0
0
0
0
0
0
0
1
1
0
0
0
0
0
0
0
0
0
0
0
0
0
0
0
0
0
0
0
0
1
1
0
0
0
0
0
0
0
0
0
0
0
0
0
0
0
0
0
0
0
0
0
0
0
0
0
0
0
0
0
0
0
0
0
1
1
0
0
0
0
0
0
0
0
0
0
0
0
0
0
0
0
0
0
0
0
1
1
0
0
0
0
0
0
0
0
0
0
0
0
0
0
0
0
0
0
0
0
0
0
0
0
0
0
0
0
0
0
0
0
0
1
1
0
0
0
0
0
0
0
0
0
0
0
0
0
0
0
0
0
0
0
0
0
1
1
0
0
0
0
0
0
0
0
0
0
0
0
0
0
0
0
0
0
0
0
0
0
0
0
0
0
0
0
0
0
0
0
0
0
1
1
0
0
0
0
0
0
0
0
0
0
0
0
0
0
0
0
0
0
0
0
0
0
0
0
0
0
0
0
0
0
0
0
0
0
0
0
0
0
0
0
0
0
0
0
0
0
0
0
0
0
0
0
0
0
0
0
0
1
1
0
0
0
0
0
0
0
0
0
0
0
0
0
0
0
0
0
0
0
0
0
0
0
0
0
0
0
0
0
0
0
0
0
0
0
0
0
0
0
0
0
0
0
0
0
0
0
0
0
0
0
0
0
0
0
0
0
1
1
0
0
0
0
0
0
0
0
0
0
0
0
0
0
0
0
0
0
0
0
0
0
0
0
0
0
0
0
0
0
0
0
0
0
0
0
0
0
0
0
0
0
0
0
0
0
0
0
0
0
0
0
0
0
0
0
0
1
1
0
0
0
0
0
0
0
0
0
0
0
0
0
0
0
0
0
0
0
0
0
0
0
0
0
0
0
0
0
0
0
0
0
0
0
0
0
0
0
0
0
0
0
0
0
0
0
0
0
0
0
0
0
0
0
0
0
1
1
0
0
0
0
0
0
0
0
0
0
0
0
0
0
0
0
0
0
0
0
0
0
0
0
0
0
0
0
0
0
0
0
0
0
0
0
0
0
0
0
0
0
0
0
0
0
0
0
0
0
0
0
0
0
0
0
0
1
1
0
0
0
0
0
0
0
0
0
0
0
0
0
0
0
0
0
0
0
0
0
0
0
0
0
0
0
0
0
0
0
0
0
0
0
0
0
0
0
0
0
0
0
0
0
0
0
0
0
0
0
0
0
0
0
0
0
1
1
0
0
0
0
0
0
0
0
0
0
0
0
0
0
0
0
0
0
0
0
0
0
0
0
0
0
0
0
0
0
0
0
0
0
0
0
0
0
0
0
0
0
0
0
0
0
0
0
0
0
0
0
0
0
0
0
0
1
1
0
0
0
0
0
0
0
0
0
0
0
0
0
0
0
0
0
0
0
0
0
0
0
0
0
0
0
0
0
0
0
0
0
0
0
0
0
0
0
0
0
0
0
0
0
0
0
0
0
0
0
0
0
0
0
0
0
1
1
0
0
0
0
0
0
0
0
0
0
0
0
0
0
0
0
0
0
0
0
0
0
0
0
0
0
0
0
0
0
0
0
0
0
0
0
0
0
0
0
0
0
0
0
0
0
0
0
0
0
0
0
0
0
0
0
0
1
1
0
0
0
0
0
0
0
0
0
0
0
0
0
0
0
0
0
0
0
0
0
0
0
0
0
0
0
0
0
0
0
0
0
0
0
0
0
0
0
0
0
0
0
0
0
0
0
0
0
0
0
0
0
0
0
0
0
1
1
0
0
0
0
0
0
0
0
0
0
0
0
0
0
0
0
0
0
0
0
0
1
1
0
0
0
0
0
0
0
0
0
0
0
0
0
0
0
0
0
0
0
0
0
0
0
0
0
0
0
0
0
0
0
0
0
0
1
1
0
0
0
0
0
0
0
0
0
0
0
0
0
0
0
0
0
0
0
0
1
1
0
0
0
0
0
0
0
0
0
0
0
0
0
0
0
0
0
0
0
0
0
0
0
0
0
0
0
0
0
0
0
0
0
1
1
0
0
0
0
0
0
0
0
0
0
0
0
0
0
0
0
0
0
0
0
1
1
0
0
0
0
0
0
0
0
0
0
0
0
0
0
0
0
0
0
0
0
0
0
0
0
0
0
0
0
0
0
0
0
0
1
1
0
0
0
0
0
0
0
0
0
0
0
0
0
0
0
0
0
0
0
0
1
1
0
0
0
0
0
0
0
0
0
0
0
0
0
0
0
0
0
0
0
0
0
0
0
0
0
0
0
0
0
0
0
0
0
1
1
0
0
0
0
0
0
0
0
0
0
0
0
0
0
0
0
0
0
0
0
1
1
0
0
0
0
0
0
0
0
0
0
0
0
0
0
0
0
0
0
0
0
0
0
0
0
0
0
0
0
0
0
0
0
0
1
1
0
0
0
0
0
0
0
0
0
0
0
0
0
0
0
0
0
0
0
0
1
1
0
0
0
0
0
0
0
0
0
0
0
0
0
0
0
0
0
0
0
0
0
0
0
0
0
0
0
0
0
0
0
0
0
1
1
0
0
0
0
0
0
0
0
0
0
0
0
0
0
0
0
0
0
0
0
1
1
0
0
0
0
0
0
0
0
0
0
0
0
0
0
0
0
0
0
0
0
0
0
0
0
0
0
0
0
0
0
0
0
0
1
1
0
0
0
0
0
0
0
0
0
0
0
0
0
0
0
0
0
0
0
0
1
1
0
0
0
0
0
0
0
0
0
0
0
0
0
0
0
0
0
0
0
0
0
0
0
0
0
0
0
0
0
0
0
0
0
1
1
0
0
0
0
0
0
0
0
0
0
0
0
0
0
0
0
0
0
0
0
1
1
0
0
0
0
0
0
0
0
0
0
0
0
0
0
0
0
0
0
0
0
0
0
0
0
0
0
0
0
0
0
0
0
0
1
1
0
0
0
0
0
0
0
0
0
0
0
0
0
0
0
0
0
0
0
0
1
1
0
0
0
0
0
0
0
0
0
0
0
0
0
0
0
0
0
0
0
0
0
0
0
0
0
0
0
0
0
0
0
0
0
1
1
0
0
0
0
0
0
0
0
0
0
0
0
0
0
0
0
0
0
0
0
1
1
0
0
0
0
0
0
0
0
0
0
0
0
0
0
0
0
0
0
0
0
0
0
0
0
0
0
0
0
0
0
0
0
0
1
1
0
0
0
0
0
0
0
0
0
0
0
0
0
0
0
0
0
0
0
0
1
1
0
0
0
0
0
0
0
0
0
0
0
0
0
0
0
0
0
0
0
0
0
0
0
0
0
0
0
0
0
0
0
0
0
1
1
0
0
0
0
0
0
0
0
0
0
0
0
0
0
0
0
0
0
0
0
1
1
0
0
0
0
0
0
0
0
0
0
0
0
0
0
0
0
0
0
0
0
0
0
0
0
0
0
0
0
0
0
0
0
0
1
1
0
0
0
0
0
0
0
0
0
0
0
0
0
0
0
0
0
0
0
0
1
1
0
0
0
0
0
0
0
0
0
0
0
0
0
0
0
0
0
0
0
0
0
0
0
0
0
0
0
0
0
0
0
0
0
1
1
0
0
0
0
0
0
0
0
0
0
0
0
0
0
0
0
0
0
0
0
1
1
0
0
0
0
0
0
0
0
0
0
0
0
0
0
0
0
0
0
0
0
0
0
0
0
0
0
0
0
0
0
0
0
0
1
1
0
0
0
0
0
0
0
0
0
0
0
0
0
0
0
0
0
0
0
0
1
1
0
0
0
0
0
0
0
0
0
0
0
0
0
0
0
0
0
0
0
0
0
0
0
0
0
0
0
0
0
0
0
0
0
1
1
0
0
0
0
0
0
0
0
0
0
0
0
0
0
0
0
0
0
0
0
1
1
0
0
0
0
0
0
0
0
0
0
0
0
0
0
0
0
0
0
0
0
0
0
0
0
0
0
0
0
0
0
0
0
0
1
1
0
0
0
0
0
0
0
0
0
0
0
0
0
0
0
0
0
0
0
0
1
1
0
0
0
0
0
0
0
0
0
0
0
0
0
0
0
0
0
0
0
0
0
0
0
0
0
0
0
0
0
0
0
0
0
1
1
0
0
0
0
0
0
0
0
0
0
0
0
0
0
0
0
0
0
0
0
1
1
0
0
0
0
0
0
0
0
0
0
0
0
0
0
0
0
0
0
0
0
0
0
0
0
0
0
0
0
0
0
0
0
0
1
1
0
0
0
0
0
0
0
0
0
0
0
0
0
0
0
0
0
0
0
0
1
1
0
0
0
0
0
0
0
0
0
0
0
0
0
0
0
0
0
0
0
0
0
0
0
0
0
0
0
0
0
0
0
0
0
1
1
0
0
0
0
0
0
0
0
0
0
0
0
0
0
0
0
0
0
0
0
1
1
0
0
0
0
0
0
0
0
0
0
0
0
0
0
0
0
0
0
0
0
0
0
0
0
0
0
0
0
0
0
0
0
0
1
1
0
0
0
0
0
0
0
0
0
0
0
0
0
0
0
0
0
0
0
0
1
1
0
0
0
0
0
0
0
0
0
0
0
0
0
0
0
0
0
0
0
0
0
0
0
0
0
0
0
0
0
0
0
0
0
1
1
1
1
1
1
1
1
1
1
1
1
1
1
1
1
1
1
1
1
1
1
1
1
1
1
1
1
1
1
1
1
1
1
1
1
1
1
1
1
1
1
1
1
1
1
1
1
1
1
1
1
1
1
1
1
1
1
				</DataArray>
				<DataArray type="Float64" Name="h" NumberOfComponents="1" Format="ascii">
1.5000000000
1.5000000000
1.5000000000
1.5000000000
1.5000000000
1.5000000000
1.5000000000
1.5000000000
1.5000000000
1.5000000000
1.5000000000
1.5000000000
1.5000000000
1.5000000000
1.4999999986
1.4999999871
1.4999999401
1.4999998190
1.4999996053
1.4999993470
1.4999991624
1.4999991624
1.0000000000
1.0000000002
1.0000000001
1.0000000000
1.0000000000
1.0000000000
1.0000000000
1.0000000000
1.0000000000
1.0000000000
1.0000000000
1.0000000000
1.0000000000
1.0000000000
1.0000000000
1.0000000000
1.0000000000
1.0000000000
1.0000000000
1.0000000000
1.0000000000
1.0000000000
1.0000000000
1.0000000000
1.0000000000
1.0000000000
1.0000000000
1.0000000000
1.0000000000
1.0000000000
1.0000000000
1.0000000000
1.0000000000
1.0000000000
1.0000000000
1.5000000000
1.5000000000
1.5000000000
1.5000000000
1.5000000000
1.5000000000
1.5000000000
1.5000000000
1.5000000000
1.5000000000
1.5000000000
1.5000000000
1.5000000000
1.4999999986
1.4999999852
1.4999999245
1.4999997472
1.4999993794
1.4999988196
1.4999982075
1.4999977958
1.4999991624
1.0000000002
1.0000000009
1.0000000006
1.0000000002
1.0000000001
1.0000000000
1.0000000000
1.0000000000
1.0000000000
1.0000000000
1.0000000000
1.0000000000
1.0000000000
1.0000000000
1.0000000000
1.0000000000
1.0000000000
1.0000000000
1.0000000000
1.0000000000
1.0000000000
1.0000000000
1.0000000000
1.0000000000
1.0000000000
1.0000000000
1.0000000000
1.0000000000
1.0000000000
1.0000000000
1.0000000000
1.0000000000
1.0000000000
1.0000000000
1.0000000000
1.5000000000
1.5000000000
1.5000000000
1.5000000000
1.5000000000
1.5000000000
1.5000000000
1.5000000000
1.5000000000
1.5000000000
1.5000000000
1.5000000000
1.4999999973
1.4999999722
1.4999998542
1.4999994895
1.4999986696
1.4999972622
1.4999953944
1.4999935372
1.4999923572
1.4999966519
1.0000000020
1.0000000068
1.0000000046
1.0000000021
1.0000000007
1.0000000001
1.0000000000
1.0000000000
1.0000000000
1.0000000000
1.0000000000
1.0000000000
1.0000000000
1.0000000000
1.0000000000
1.0000000000
1.0000000000
1.0000000000
1.0000000000
1.0000000000
1.0000000000
1.0000000000
1.0000000000
1.0000000000
1.0000000000
1.0000000000
1.0000000000
1.0000000000
1.0000000000
1.0000000000
1.0000000000
1.0000000000
1.0000000000
1.0000000000
1.0000000000
1.5000000000
1.5000000000
1.5000000000
1.5000000000
1.5000000000
1.5000000000
1.5000000000
1.5000000000
1.5000000000
1.5000000000
1.5000000000
1.4999999955
1.4999999506
1.4999997249
1.4999989759
1.4999971487
1.4999936901
1.4999884731
1.4999821846
1.4999763419
1.4999727791
1.4999866829
1.0000000157
1.0000000465
1.0000000333
1.0000000173
1.0000000066
1.0000000018
1.0000000004
1.0000000000
1.0000000000
1.0000000000
1.0000000000
1.0000000000
1.0000000000
1.0000000000
1.0000000000
1.0000000000
1.0000000000
1.0000000000
1.0000000000
1.0000000000
1.0000000000
1.0000000000
1.0000000000
1.0000000000
1.0000000000
1.0000000000
1.0000000000
1.0000000000
1.0000000000
1.0000000000
1.0000000000
1.0000000000
1.0000000000
1.0000000000
1.0000000000
1.5000000000
1.5000000000
1.5000000000
1.5000000000
1.5000000000
1.5000000000
1.5000000000
1.5000000000
1.5000000000
1.5000000000
1.4999999930
1.4999999198
1.4999995299
1.4999981545
1.4999945662
1.4999872338
1.4999751053
1.4999586034
1.4999401896
1.4999239833
1.4999144175
1.4999539225
1.0000001040
1.0000002716
1.0000002038
1.0000001164
1.0000000510
1.0000000170
1.0000000042
1.0000000007
1.0000000001
1.0000000000
1.0000000000
1.0000000000
1.0000000000
1.0000000000
1.0000000000
1.0000000000
1.0000000000
1.0000000000
1.0000000000
1.0000000000
1.0000000000
1.0000000000
1.0000000000
1.0000000000
1.0000000000
1.0000000000
1.0000000000
1.0000000000
1.0000000000
1.0000000000
1.0000000000
1.0000000000
1.0000000000
1.0000000000
1.0000000000
1.5000000000
1.5000000000
1.5000000000
1.5000000000
1.5000000000
1.5000000000
1.5000000000
1.5000000000
1.5000000000
1.4999999900
1.4999998800
1.4999992646
1.4999969755
1.4999906568
1.4999769237
1.4999525592
1.4999164854
1.4998714588
1.4998243779
1.4997847925
1.4997620570
1.4998604513
1.0000005856
1.0000013701
1.0000010691
1.0000006577
1.0000003210
1.0000001238
1.0000000371
1.0000000084
1.0000000013
1.0000000001
1.0000000000
1.0000000000
1.0000000000
1.0000000000
1.0000000000
1.0000000000
1.0000000000
1.0000000000
1.0000000000
1.0000000000
1.0000000000
1.0000000000
1.0000000000
1.0000000000
1.0000000000
1.0000000000
1.0000000000
1.0000000000
1.0000000000
1.0000000000
1.0000000000
1.0000000000
1.0000000000
1.0000000000
1.0000000000
1.5000000000
1.5000000000
1.5000000000
1.5000000000
1.5000000000
1.5000000000
1.5000000000
1.5000000000
1.4999999868
1.4999998340
1.4999989392
1.4999954502
1.4999853327
1.4999621688
1.4999186907
1.4998500797
1.4997575752
1.4996503114
1.4995442393
1.4994584822
1.4994103637
1.4996265919
1.0000028458
1.0000060388
1.0000048679
1.0000031857
1.0000017002
1.0000007382
1.0000002580
1.0000000711
1.0000000149
1.0000000022
1.0000000002
1.0000000000
1.0000000000
1.0000000000
1.0000000000
1.0000000000
1.0000000000
1.0000000000
1.0000000000
1.0000000000
1.0000000000
1.0000000000
1.0000000000
1.0000000000
1.0000000000
1.0000000000
1.0000000000
1.0000000000
1.0000000000
1.0000000000
1.0000000000
1.0000000000
1.0000000000
1.0000000000
1.0000000000
1.5000000000
1.5000000000
1.5000000000
1.5000000000
1.5000000000
1.5000000000
1.5000000000
1.4999999836
1.4999997863
1.4999985812
1.4999936741
1.4999787983
1.4999431446
1.4998729501
1.4997563588
1.4995898275
1.4993827029
1.4991573802
1.4989450821
1.4987791557
1.4986878977
1.4991097749
1.0000120711
1.0000234613
1.0000194377
1.0000134050
1.0000077171
1.0000037007
1.0000014665
1.0000004732
1.0000001215
1.0000000239
1.0000000034
1.0000000003
1.0000000000
1.0000000000
1.0000000000
1.0000000000
1.0000000000
1.0000000000
1.0000000000
1.0000000000
1.0000000000
1.0000000000
1.0000000000
1.0000000000
1.0000000000
1.0000000000
1.0000000000
1.0000000000
1.0000000000
1.0000000000
1.0000000000
1.0000000000
1.0000000000
1.0000000000
1.0000000000
1.5000000000
1.5000000000
1.5000000000
1.5000000000
1.5000000000
1.5000000000
1.4999999810
1.4999997435
1.4999982335
1.4999918298
1.4999716003
1.4999210490
1.4998172112
1.4996370505
1.4993675315
1.4990144367
1.4986051164
1.4981839767
1.4978035398
1.4975147659
1.4973586304
1.4980939955
1.0000450853
1.0000809240
1.0000686453
1.0000495288
1.0000304351
1.0000158900
1.0000070025
1.0000025756
1.0000007773
1.0000001878
1.0000000349
1.0000000047
1.0000000004
1.0000000000
1.0000000000
1.0000000000
1.0000000000
1.0000000000
1.0000000000
1.0000000000
1.0000000000
1.0000000000
1.0000000000
1.0000000000
1.0000000000
1.0000000000
1.0000000000
1.0000000000
1.0000000000
1.0000000000
1.0000000000
1.0000000000
1.0000000000
1.0000000000
1.0000000000
1.5000000000
1.5000000000
1.5000000000
1.5000000000
1.5000000000
1.4999999794
1.4999997121
1.4999979465
1.4999901622
1.4999645860
1.4998981112
1.4997561050
1.4994998660
1.4991010155
1.4985562663
1.4978946344
1.4971735805
1.4964670128
1.4958516310
1.4953960590
1.4951532423
1.4963060637
1.0001493443
1.0002493066
1.0002158881
1.0001620631
1.0001054405
1.0000592798
1.0000286279
1.0000117667
1.0000040627
1.0000011570
1.0000002648
1.0000000469
1.0000000060
1.0000000005
1.0000000000
1.0000000000
1.0000000000
1.0000000000
1.0000000000
1.0000000000
1.0000000000
1.0000000000
1.0000000000
1.0000000000
1.0000000000
1.0000000000
1.0000000000
1.0000000000
1.0000000000
1.0000000000
1.0000000000
1.0000000000
1.0000000000
1.0000000000
1.0000000000
1.5000000000
1.5000000000
1.5000000000
1.5000000000
1.4999999791
1.4999996975
1.4999977673
1.4999889291
1.4999587599
1.4998772996
1.4996966095
1.4993583149
1.4988122982
1.4980391608
1.4970643513
1.4959566583
1.4948131182
1.4937391097
1.4928325810
1.4921754041
1.4918291782
1.4934667019
1.0004413183
1.0006893481
1.0006080240
1.0004728483
1.0003236813
1.0001942959
1.0001016735
1.0000460102
1.0000178147
1.0000058195
1.0000015737
1.0000003431
1.0000000580
1.0000000071
1.0000000006
1.0000000000
1.0000000000
1.0000000000
1.0000000000
1.0000000000
1.0000000000
1.0000000000
1.0000000000
1.0000000000
1.0000000000
1.0000000000
1.0000000000
1.0000000000
1.0000000000
1.0000000000
1.0000000000
1.0000000000
1.0000000000
1.0000000000
1.0000000000
1.5000000000
1.5000000000
1.5000000000
1.4999999801
1.4999997023
1.4999977276
1.4999883392
1.4999550554
1.4998617275
1.4996468591
1.4992297547
1.4985326490
1.4975118113
1.4961816831
1.4946185050
1.4929430483
1.4912931117
1.4897990763
1.4885708666
1.4876954721
1.4872383180
1.4893636250
1.0011689222
1.0017173863
1.0015403503
1.0012369951
1.0008866521
1.0005645341
1.0003173232
1.0001562971
1.0000668492
1.0000245489
1.0000076283
1.0000019673
1.0000004100
1.0000000664
1.0000000078
1.0000000006
1.0000000000
1.0000000000
1.0000000000
1.0000000000
1.0000000000
1.0000000000
1.0000000000
1.0000000000
1.0000000000
1.0000000000
1.0000000000
1.0000000000
1.0000000000
1.0000000000
1.0000000000
1.0000000000
1.0000000000
1.0000000000
1.0000000000
1.5000000000
1.5000000000
1.4999999822
1.4999997258
1.4999978345
1.4999884979
1.4999541098
1.4998539346
1.4996144535
1.4991322116
1.4982974727
1.4970337903
1.4953346289
1.4932766174
1.4910026159
1.4886862835
1.4864962457
1.4845735299
1.4830265877
1.4819380846
1.4813728677
1.4839166539
1.0027848072
1.0038650503
1.0035211715
1.0029134227
1.0021791110
1.0014645041
1.0008783758
1.0004667449
1.0002179652
1.0000886177
1.0000310057
1.0000091987
1.0000022695
1.0000004533
1.0000000705
1.0000000080
1.0000000006
1.0000000000
1.0000000000
1.0000000000
1.0000000000
1.0000000000
1.0000000000
1.0000000000
1.0000000000
1.0000000000
1.0000000000
1.0000000000
1.0000000000
1.0000000000
1.0000000000
1.0000000000
1.0000000000
1.0000000000
1.0000000000
1.5000000000
1.4999999852
1.4999997638
1.4999980692
1.4999893784
1.4999560981
1.4998552738
1.4996046954
1.4990806054
1.4981397327
1.4966655464
1.4946187960
1.4920648730
1.4891628802
1.4861237952
1.4831613416
1.4804559033
1.4781407164
1.4763088438
1.4750306565
1.4743683371
1.4772041489
1.0059790106
1.0078669960
1.0072750540
1.0061932632
1.0048231555
1.0034103301
1.0021722113
1.0012369621
1.0006250464
1.0002780295
1.0001078451
1.0000360568
1.0000102385
1.0000024214
1.0000004643
1.0000000694
1.0000000076
1.0000000005
1.0000000000
1.0000000000
1.0000000000
1.0000000000
1.0000000000
1.0000000000
1.0000000000
1.0000000000
1.0000000000
1.0000000000
1.0000000000
1.0000000000
1.0000000000
1.0000000000
1.0000000000
1.0000000000
1.0000000000
1.4999999805
1.4999997986
1.4999983921
1.4999908282
1.4999606758
1.4998655375
1.4996192802
1.4990832393
1.4980830227
1.4964572430
1.4941215742
1.4911143305
1.4875981496
1.4838179884
1.4800384233
1.4764903186
1.4733430769
1.4707044797
1.4686410850
1.4672063523
1.4664611886
1.4694366540
1.0115756216
1.0144832421
1.0135911169
1.0118959104
1.0096350248
1.0071547859
1.0048256489
1.0029314130
1.0015920918
1.0007677051
1.0003261533
1.0001209606
1.0000387147
1.0000105367
1.0000023915
1.0000004407
1.0000000634
1.0000000067
1.0000000005
1.0000000000
1.0000000000
1.0000000000
1.0000000000
1.0000000000
1.0000000000
1.0000000000
1.0000000000
1.0000000000
1.0000000000
1.0000000000
1.0000000000
1.0000000000
1.0000000000
1.0000000000
1.0000000000
1.4999997472
1.4999986102
1.4999926022
1.4999670777
1.4998830052
1.4996558599
1.4991399174
1.4981364154
1.4964391486
1.4939078354
1.4905346277
1.4864658757
1.4819681953
1.4773580415
1.4729282664
1.4689007776
1.4654133041
1.4625347321
1.4602983230
1.4587397189
1.4579236907
1.4608936669
1.0202067795
1.0241173979
1.0229616256
1.0206541098
1.0173885858
1.0135515066
1.0096660549
1.0062478256
1.0036308239
1.0018849656
1.0008688169
1.0003529941
1.0001253033
1.0000384218
1.0000100288
1.0000021856
1.0000003872
1.0000000536
1.0000000055
1.0000000004
1.0000000000
1.0000000000
1.0000000000
1.0000000000
1.0000000000
1.0000000000
1.0000000000
1.0000000000
1.0000000000
1.0000000000
1.0000000000
1.0000000000
1.0000000000
1.0000000000
1.0000000000
1.4999983388
1.4999935647
1.4999742144
1.4999048927
1.4997085984
1.4992419227
1.4982925026
1.4966153485
1.4940085718
1.4903984230
1.4858885183
1.4807446704
1.4753255485
1.4699935230
1.4650416784
1.4606599859
1.4569392525
1.4539012995
1.4515431614
1.4498844604
1.4490023098
1.4518515235
1.0318349221
1.0363944723
1.0351430526
1.0324597323
1.0283820440
1.0232028762
1.0174976675
1.0120239054
1.0074589589
1.0041500747
1.0020604937
1.0009080989
1.0003529296
1.0001199187
1.0000352263
1.0000088175
1.0000018449
1.0000003142
1.0000000419
1.0000000041
1.0000000003
1.0000000000
1.0000000000
1.0000000000
1.0000000000
1.0000000000
1.0000000000
1.0000000000
1.0000000000
1.0000000000
1.0000000000
1.0000000000
1.0000000000
1.0000000000
1.0000000000
1.4999926715
1.4999775578
1.4999274423
1.4997695179
1.4993738852
1.4985286372
1.4969624589
1.4944140450
1.4907290183
1.4859379629
1.4802728099
1.4741115951
1.4678817761
1.4619636978
1.4566265618
1.4520117661
1.4481539309
1.4450237776
1.4425811731
1.4408322144
1.4398774602
1.4425264422
1.0454708277
1.0500764502
1.0490083096
1.0463996744
1.0420486639
1.0360050382
1.0286896617
1.0209573523
1.0138681057
1.0082489774
1.0043899718
1.0020827060
1.0008770412
1.0003258178
1.0001058886
1.0000297768
1.0000071419
1.0000014334
1.0000002344
1.0000000301
1.0000000028
1.0000000002
1.0000000000
1.0000000000
1.0000000000
1.0000000000
1.0000000000
1.0000000000
1.0000000000
1.0000000000
1.0000000000
1.0000000000
1.0000000000
1.0000000000
1.0000000000
1.4999756413
1.4999371404
1.4998281821
1.4995170099
1.4988116531
1.4974338239
1.4950748681
1.4914946423
1.4866242119
1.4806203088
1.4738422384
1.4667618076
1.4598498652
1.4534813024
1.4478843568
1.4431416823
1.4392267162
1.4360567346
1.4335527601
1.4317079272
1.4306590682
1.4330541213
1.0594578757
1.0635289742
1.0629582985
1.0609311273
1.0570107200
1.0509445862
1.0427899132
1.0331982225
1.0234296554
1.0148850591
1.0084660575
1.0042996293
1.0019455616
1.0007815322
1.0002770892
1.0000860052
1.0000231172
1.0000053048
1.0000010198
1.0000001600
1.0000000197
1.0000000018
1.0000000001
1.0000000000
1.0000000000
1.0000000000
1.0000000000
1.0000000000
1.0000000000
1.0000000000
1.0000000000
1.0000000000
1.0000000000
1.0000000000
1.0000000000
1.4999349370
1.4998525068
1.4996471619
1.4991036662
1.4979680829
1.4959094890
1.4926111147
1.4878887635
1.4817839326
1.4745852106
1.4667674332
1.4588755935
1.4514034235
1.4447046452
1.4389564710
1.4341770059
1.4302748327
1.4271099776
1.4245591630
1.4225979397
1.4214125942
1.4235060691
1.0722009853
1.0754145181
1.0756367356
1.0745879729
1.0716860738
1.0664599841
1.0585408898
1.0480824973
1.0361442728
1.0245115025
1.0148760300
1.0080569645
1.0038921177
1.0016750976
1.0006402634
1.0002161360
1.0000639192
1.0000163831
1.0000035887
1.0000006593
1.0000000990
1.0000000117
1.0000000010
1.0000000001
1.0000000000
1.0000000000
1.0000000000
1.0000000000
1.0000000000
1.0000000000
1.0000000000
1.0000000000
1.0000000000
1.0000000000
1.0000000000
1.4998543053
1.4997010954
1.4993568689
1.4984977593
1.4968169790
1.4939519414
1.4896066797
1.4836783024
1.4763299745
1.4679774395
1.4591967324
1.4505903305
1.4426627308
1.4357387388
1.4299394263
1.4252136889
1.4213992808
1.4182904232
1.4157072263
1.4135938593
1.4121962399
1.4139266628
1.0827175708
1.0850297983
1.0863572333
1.0865438172
1.0849913336
1.0811786596
1.0744338506
1.0643214586
1.0513007873
1.0370683412
1.0239727857
1.0138097689
1.0070863373
1.0032426277
1.0013225556
1.0004793924
1.0001535679
1.0000431267
1.0000105059
1.0000021894
1.0000003831
1.0000000549
1.0000000062
1.0000000005
1.0000000000
1.0000000000
1.0000000000
1.0000000000
1.0000000000
1.0000000000
1.0000000000
1.0000000000
1.0000000000
1.0000000000
1.0000000000
1.4997179914
1.4994643471
1.4989399302
1.4976887852
1.4953658363
1.4915990099
1.4861360668
1.4789698375
1.4703867026
1.4609215925
1.4512415193
1.4419993579
1.4337074411
1.4266603983
1.4209201545
1.4163592275
1.4127326405
1.4097524397
1.4071602646
1.4048402700
1.4030947906
1.4043779133
1.0905360394
1.0920350335
1.0949519808
1.0966305620
1.0966004902
1.0944460304
1.0894068002
1.0806056335
1.0677473566
1.0519332012
1.0356993569
1.0218179590
1.0118431241
1.0057242070
1.0024688769
1.0009499863
1.0003250916
1.0000983749
1.0000261150
1.0000060180
1.0000011875
1.0000001970
1.0000000268
1.0000000029
1.0000000002
1.0000000000
1.0000000000
1.0000000000
1.0000000000
1.0000000000
1.0000000000
1.0000000000
1.0000000000
1.0000000000
1.0000000000
1.4995170189
1.4991350829
1.4983957886
1.4966913016
1.4936535313
1.4889193939
1.4822951372
1.4738750685
1.4640660258
1.4535164283
1.4429815059
1.4331669722
1.4245983678
1.4175435839
1.4120021364
1.4077580996
1.4044640246
1.4017246635
1.3991703055
1.3965717895
1.3942367702
1.3949783848
1.0948962913
1.0956298143
1.1012311272
1.1050074673
1.1067928682
1.1063988284
1.1032110195
1.0961972152
1.0844444811
1.0681928127
1.0495909863
1.0320407435
1.0183217694
1.0092976436
1.0042054078
1.0016996768
1.0006134422
1.0001970128
1.0000559741
1.0000139559
1.0000030220
1.0000005608
1.0000000876
1.0000000112
1.0000000011
1.0000000001
1.0000000000
1.0000000000
1.0000000000
1.0000000000
1.0000000000
1.0000000000
1.0000000000
1.0000000000
1.0000000000
1.4992545804
1.4987224652
1.4977435842
1.4955436325
1.4917436912
1.4860019155
1.4781902857
1.4685051049
1.4574705215
1.4458470106
1.4344821978
1.4241442594
1.4153828376
1.4084449741
1.4032637826
1.3995208499
1.3967472825
1.3944213660
1.3920336965
1.3891562363
1.3858888636
1.3860265932
1.0928315793
1.0926867152
1.1044306159
1.1121005756
1.1164453111
1.1179156718
1.1164281808
1.1111653112
1.1009067051
1.0850618675
1.0649765154
1.0441448479
1.0264592773
1.0140105112
1.0065919465
1.0027700154
1.0010415805
1.0003499626
1.0001046434
1.0000276745
1.0000064212
1.0000012938
1.0000002234
1.0000000325
1.0000000039
1.0000000004
1.0000000000
1.0000000000
1.0000000000
1.0000000000
1.0000000000
1.0000000000
1.0000000000
1.0000000000
1.0000000000
1.4989482376
1.4982529068
1.4970212145
1.4943042389
1.4897195614
1.4829525415
1.4739426967
1.4629862970
1.4507221151
1.4380230948
1.4258344253
1.4149946459
1.4060823021
1.3993183359
1.3945517937
1.3913418701
1.3891036121
1.3872617771
1.3853515726
1.3830249668
1.3801139520
1.3796808452
1.0732303320
1.0718218041
1.1038958517
1.1200912543
1.1279436397
1.1308999582
1.1303679425
1.1262018615
1.1171842854
1.1020551975
1.0811595984
1.0575652690
1.0359364652
1.0197196841
1.0095711245
1.0041394156
1.0016023188
1.0005554457
1.0001719993
1.0000473490
1.0000115117
1.0000024516
1.0000004526
1.0000000715
1.0000000095
1.0000000010
1.0000000001
1.0000000000
1.0000000000
1.0000000000
1.0000000000
1.0000000000
1.0000000000
1.0000000000
1.0000000000
1.4986277465
1.4977664894
1.4962810212
1.4930473407
1.4876825170
1.4799007926
1.4697084861
1.4574993128
1.4440242145
1.4302675515
1.4172710821
1.4059359435
1.3968403729
1.3901057020
1.3853503682
1.3817557513
1.3781957164
1.3733118778
1.3653577171
1.3515411731
1.3263099553
1.2776618031
1.2159093280
1.2168285167
1.1497667340
1.1478916550
1.1517420397
1.1527911584
1.1520102077
1.1500205757
1.1469160222
1.1418834266
1.1331347657
1.1185366229
1.0972298976
1.0714180069
1.0460994725
1.0260200557
1.0129174829
1.0056928710
1.0022424121
1.0007913775
1.0002499062
1.0000703350
1.0000175407
1.0000038481
1.0000007359
1.0000001213
1.0000000170
1.0000000020
1.0000000002
1.0000000000
1.0000000000
1.0000000000
1.0000000000
1.0000000000
1.0000000000
1.0000000000
1.0000000000
1.4983277239
1.4973083972
1.4955810715
1.4918551232
1.4857479071
1.4770030066
1.4656934706
1.4523106588
1.4377201806
1.4230254101
1.4093794193
1.3977671071
1.3887895961
1.3824912710
1.3782970290
1.3751166634
1.3715739485
1.3662158594
1.3575298270
1.3436473302
1.3216669940
1.2866987214
1.2147299000
1.2156622168
1.1783168310
1.1698637417
1.1678024083
1.1660130447
1.1636846667
1.1609016386
1.1576539242
1.1531712130
1.1455837471
1.1322713133
1.1114031348
1.0842496926
1.0558742283
1.0322163686
1.0162320498
1.0072249350
1.0028666280
1.0010180368
1.0003234791
1.0000916341
1.0000230096
1.0000050840
1.0000009793
1.0000001626
1.0000000229
1.0000000027
1.0000000003
1.0000000000
1.0000000000
1.0000000000
1.0000000000
1.0000000000
1.0000000000
1.0000000000
1.0000000000
1.4980762127
1.4969165013
1.4949718759
1.4908029192
1.4840273854
1.4744177783
1.4621124216
1.4476982456
1.4321549825
1.4167092954
1.4026372361
1.3910253108
1.3825142548
1.3770772179
1.3739405451
1.3717475718
1.3689158834
1.3639788463
1.3556966567
1.3428679489
1.3239007417
1.2961167499
1.2454928580
1.2308700362
1.2020082510
1.1882636467
1.1809467310
1.1759487104
1.1718711698
1.1683197877
1.1650623629
1.1612762626
1.1549988924
1.1432103836
1.1232257971
1.0953659932
1.0645584667
1.0377701754
1.0191802107
1.0085597409
1.0033947228
1.0012031691
1.0003812274
1.0001076202
1.0000269099
1.0000059144
1.0000011316
1.0000001862
1.0000000259
1.0000000030
1.0000000003
1.0000000000
1.0000000000
1.0000000000
1.0000000000
1.0000000000
1.0000000000
1.0000000000
1.0000000000
1.4978885925
1.4966147767
1.4944901689
1.4899535797
1.4826233351
1.4722984911
1.4591763302
1.4439295253
1.4276410652
1.4116523487
1.3973585753
1.3859481548
1.3781005157
1.3737084738
1.3717838442
1.3706950547
1.3686625977
1.3642094876
1.3562956636
1.3441098178
1.3266488997
1.3020478977
1.2626243623
1.2415666218
1.2164912181
1.2003916946
1.1900783839
1.1829173294
1.1775422140
1.1733929847
1.1701441664
1.1669685084
1.1618582914
1.1514988870
1.1325054406
1.1043313795
1.0716631603
1.0423020118
1.0215383297
1.0095914628
1.0037851129
1.0013330510
1.0004194073
1.0001175025
1.0000291422
1.0000063486
1.0000012030
1.0000001959
1.0000000270
1.0000000031
1.0000000003
1.0000000000
1.0000000000
1.0000000000
1.0000000000
1.0000000000
1.0000000000
1.0000000000
1.0000000000
1.4977679039
1.4964134358
1.4941590469
1.4893570392
1.4816265151
1.4707874685
1.4570826612
1.4412502292
1.4244522757
1.4081197626
1.3937431497
1.3825928001
1.3753745608
1.3719015535
1.3709905851
1.3707740580
1.3693176499
1.3651458300
1.3573618550
1.3453870372
1.3285190803
1.3053503051
1.2716801477
1.2480517714
1.2245603826
1.2074752543
1.1956375023
1.1872458101
1.1810792629
1.1765524651
1.1733257877
1.1705996857
1.1663602106
1.1571063828
1.1389553977
1.1106878836
1.0767414050
1.0455162410
1.0231701080
1.0102777615
1.0040317834
1.0014102076
1.0004405116
1.0001225250
1.0000301698
1.0000065261
1.0000012282
1.0000001987
1.0000000272
1.0000000031
1.0000000003
1.0000000000
1.0000000000
1.0000000000
1.0000000000
1.0000000000
1.0000000000
1.0000000000
1.0000000000
1.4977098791
1.4963136028
1.4939909334
1.4890492184
1.4811081719
1.4699994791
1.4559908289
1.4398559379
1.4227999651
1.4063031604
1.3919090753
1.3809335735
1.3740946095
1.3711537116
1.3708092442
1.3710566798
1.3698789400
1.3658086756
1.3580293776
1.3460773619
1.3293869227
1.3067745264
1.2755538486
1.2510514499
1.2281443148
1.2107079566
1.1982407632
1.1893029741
1.1827687221
1.1780623929
1.1748525061
1.1723643253
1.1685899542
1.1599401318
1.1422734091
1.1140001882
1.0793997015
1.0471869650
1.0240015055
1.0106163552
1.0041483296
1.0014447378