<VTKFile type="UnstructuredGrid" version="0.1">
	<UnstructuredGrid>
		<Piece NumberOfPoints="13548" NumberOfCells="3387">
			<CellData>
				<DataArray type="Int32" Name="ghost" NumberOfComponents="1" Format="ascii">
1
1
1
1
1
1
1
1
1
1
1
1
1
1
1
1
1
1
1
1
1
1
1
1
1
1
1
1
1
1
1
1
1
1
1
1
1
1
1
1
1
1
1
1
1
1
1
1
1
1
1
1
1
1
1
1
1
1
0
0
0
0
0
0
0
0
0
0
0
0
0
0
0
0
0
0
0
0
1
1
0
0
0
0
0
0
0
0
0
0
0
0
0
0
0
0
0
0
0
0
0
0
0
0
0
0
0
0
0
0
0
0
0
1
1
0
0
0
0
0
0
0
0
0
0
0
0
0
0
0
0
0
0
0
0
1
1
0
0
0
0
0
0
0
0
0
0
0
0
0
0
0
0
0
0
0
0
0
0
0
0
0
0
0
0
0
0
0
0
0
1
1
0
0
0
0
0
0
0
0
0
0
0
0
0
0
0
0
0
0
0
0
1
1
0
0
0
0
0
0
0
0
0
0
0
0
0
0
0
0
0
0
0
0
0
0
0
0
0
0
0
0
0
0
0
0
0
1
1
0
0
0
0
0
0
0
0
0
0
0
0
0
0
0
0
0
0
0
0
1
1
0
0
0
0
0
0
0
0
0
0
0
0
0
0
0
0
0
0
0
0
0
0
0
0
0
0
0
0
0
0
0
0
0
1
1
0
0
0
0
0
0
0
0
0
0
0
0
0
0
0
0
0
0
0
0
1
1
0
0
0
0
0
0
0
0
0
0
0
0
0
0
0
0
0
0
0
0
0
0
0
0
0
0
0
0
0
0
0
0
0
1
1
0
0
0
0
0
0
0
0
0
0
0
0
0
0
0
0
0
0
0
0
1
1
0
0
0
0
0
0
0
0
0
0
0
0
0
0
0
0
0
0
0
0
0
0
0
0
0
0
0
0
0
0
0
0
0
1
1
0
0
0
0
0
0
0
0
0
0
0
0
0
0
0
0
0
0
0
0
1
1
0
0
0
0
0
0
0
0
0
0
0
0
0
0
0
0
0
0
0
0
0
0
0
0
0
0
0
0
0
0
0
0
0
1
1
0
0
0
0
0
0
0
0
0
0
0
0
0
0
0
0
0
0
0
0
1
1
0
0
0
0
0
0
0
0
0
0
0
0
0
0
0
0
0
0
0
0
0
0
0
0
0
0
0
0
0
0
0
0
0
1
1
0
0
0
0
0
0
0
0
0
0
0
0
0
0
0
0
0
0
0
0
1
1
0
0
0
0
0
0
0
0
0
0
0
0
0
0
0
0
0
0
0
0
0
0
0
0
0
0
0
0
0
0
0
0
0
1
1
0
0
0
0
0
0
0
0
0
0
0
0
0
0
0
0
0
0
0
0
1
1
0
0
0
0
0
0
0
0
0
0
0
0
0
0
0
0
0
0
0
0
0
0
0
0
0
0
0
0
0
0
0
0
0
1
1
0
0
0
0
0
0
0
0
0
0
0
0
0
0
0
0
0
0
0
0
1
1
0
0
0
0
0
0
0
0
0
0
0
0
0
0
0
0
0
0
0
0
0
0
0
0
0
0
0
0
0
0
0
0
0
1
1
0
0
0
0
0
0
0
0
0
0
0
0
0
0
0
0
0
0
0
0
1
1
0
0
0
0
0
0
0
0
0
0
0
0
0
0
0
0
0
0
0
0
0
0
0
0
0
0
0
0
0
0
0
0
0
1
1
0
0
0
0
0
0
0
0
0
0
0
0
0
0
0
0
0
0
0
0
1
1
0
0
0
0
0
0
0
0
0
0
0
0
0
0
0
0
0
0
0
0
0
0
0
0
0
0
0
0
0
0
0
0
0
1
1
0
0
0
0
0
0
0
0
0
0
0
0
0
0
0
0
0
0
0
0
1
1
0
0
0
0
0
0
0
0
0
0
0
0
0
0
0
0
0
0
0
0
0
0
0
0
0
0
0
0
0
0
0
0
0
1
1
0
0
0
0
0
0
0
0
0
0
0
0
0
0
0
0
0
0
0
0
1
1
0
0
0
0
0
0
0
0
0
0
0
0
0
0
0
0
0
0
0
0
0
0
0
0
0
0
0
0
0
0
0
0
0
1
1
0
0
0
0
0
0
0
0
0
0
0
0
0
0
0
0
0
0
0
0
1
1
0
0
0
0
0
0
0
0
0
0
0
0
0
0
0
0
0
0
0
0
0
0
0
0
0
0
0
0
0
0
0
0
0
1
1
0
0
0
0
0
0
0
0
0
0
0
0
0
0
0
0
0
0
0
0
1
1
0
0
0
0
0
0
0
0
0
0
0
0
0
0
0
0
0
0
0
0
0
0
0
0
0
0
0
0
0
0
0
0
0
1
1
0
0
0
0
0
0
0
0
0
0
0
0
0
0
0
0
0
0
0
0
1
1
0
0
0
0
0
0
0
0
0
0
0
0
0
0
0
0
0
0
0
0
0
0
0
0
0
0
0
0
0
0
0
0
0
1
1
0
0
0
0
0
0
0
0
0
0
0
0
0
0
0
0
0
0
0
0
1
1
0
0
0
0
0
0
0
0
0
0
0
0
0
0
0
0
0
0
0
0
0
0
0
0
0
0
0
0
0
0
0
0
0
1
1
0
0
0
0
0
0
0
0
0
0
0
0
0
0
0
0
0
0
0
0
1
1
0
0
0
0
0
0
0
0
0
0
0
0
0
0
0
0
0
0
0
0
0
0
0
0
0
0
0
0
0
0
0
0
0
1
1
0
0
0
0
0
0
0
0
0
0
0
0
0
0
0
0
0
0
0
0
1
1
0
0
0
0
0
0
0
0
0
0
0
0
0
0
0
0
0
0
0
0
0
0
0
0
0
0
0
0
0
0
0
0
0
1
1
0
0
0
0
0
0
0
0
0
0
0
0
0
0
0
0
0
0
0
0
1
1
0
0
0
0
0
0
0
0
0
0
0
0
0
0
0
0
0
0
0
0
0
0
0
0
0
0
0
0
0
0
0
0
0
1
1
0
0
0
0
0
0
0
0
0
0
0
0
0
0
0
0
0
0
0
0
1
1
0
0
0
0
0
0
0
0
0
0
0
0
0
0
0
0
0
0
0
0
0
0
0
0
0
0
0
0
0
0
0
0
0
1
1
0
0
0
0
0
0
0
0
0
0
0
0
0
0
0
0
0
0
0
0
1
1
0
0
0
0
0
0
0
0
0
0
0
0
0
0
0
0
0
0
0
0
0
0
0
0
0
0
0
0
0
0
0
0
0
1
1
0
0
0
0
0
0
0
0
0
0
0
0
0
0
0
0
0
0
0
0
0
1
1
0
0
0
0
0
0
0
0
0
0
0
0
0
0
0
0
0
0
0
0
0
0
0
0
0
0
0
0
0
0
0
0
0
0
1
1
0
0
0
0
0
0
0
0
0
0
0
0
0
0
0
0
0
0
0
0
0
0
0
0
0
0
0
0
0
0
0
0
0
0
0
0
0
0
0
0
0
0
0
0
0
0
0
0
0
0
0
0
0
0
0
0
0
1
1
0
0
0
0
0
0
0
0
0
0
0
0
0
0
0
0
0
0
0
0
0
0
0
0
0
0
0
0
0
0
0
0
0
0
0
0
0
0
0
0
0
0
0
0
0
0
0
0
0
0
0
0
0
0
0
0
0
1
1
0
0
0
0
0
0
0
0
0
0
0
0
0
0
0
0
0
0
0
0
0
0
0
0
0
0
0
0
0
0
0
0
0
0
0
0
0
0
0
0
0
0
0
0
0
0
0
0
0
0
0
0
0
0
0
0
0
1
1
0
0
0
0
0
0
0
0
0
0
0
0
0
0
0
0
0
0
0
0
0
0
0
0
0
0
0
0
0
0
0
0
0
0
0
0
0
0
0
0
0
0
0
0
0
0
0
0
0
0
0
0
0
0
0
0
0
1
1
0
0
0
0
0
0
0
0
0
0
0
0
0
0
0
0
0
0
0
0
0
0
0
0
0
0
0
0
0
0
0
0
0
0
0
0
0
0
0
0
0
0
0
0
0
0
0
0
0
0
0
0
0
0
0
0
0
1
1
0
0
0
0
0
0
0
0
0
0
0
0
0
0
0
0
0
0
0
0
0
0
0
0
0
0
0
0
0
0
0
0
0
0
0
0
0
0
0
0
0
0
0
0
0
0
0
0
0
0
0
0
0
0
0
0
0
1
1
0
0
0
0
0
0
0
0
0
0
0
0
0
0
0
0
0
0
0
0
0
0
0
0
0
0
0
0
0
0
0
0
0
0
0
0
0
0
0
0
0
0
0
0
0
0
0
0
0
0
0
0
0
0
0
0
0
1
1
0
0
0
0
0
0
0
0
0
0
0
0
0
0
0
0
0
0
0
0
0
0
0
0
0
0
0
0
0
0
0
0
0
0
0
0
0
0
0
0
0
0
0
0
0
0
0
0
0
0
0
0
0
0
0
0
0
1
1
0
0
0
0
0
0
0
0
0
0
0
0
0
0
0
0
0
0
0
0
0
0
0
0
0
0
0
0
0
0
0
0
0
0
0
0
0
0
0
0
0
0
0
0
0
0
0
0
0
0
0
0
0
0
0
0
0
1
1
0
0
0
0
0
0
0
0
0
0
0
0
0
0
0
0
0
0
0
0
0
0
0
0
0
0
0
0
0
0
0
0
0
0
0
0
0
0
0
0
0
0
0
0
0
0
0
0
0
0
0
0
0
0
0
0
0
1
1
0
0
0
0
0
0
0
0
0
0
0
0
0
0
0
0
0
0
0
0
0
1
1
0
0
0
0
0
0
0
0
0
0
0
0
0
0
0
0
0
0
0
0
0
0
0
0
0
0
0
0
0
0
0
0
0
0
1
1
0
0
0
0
0
0
0
0
0
0
0
0
0
0
0
0
0
0
0
0
1
1
0
0
0
0
0
0
0
0
0
0
0
0
0
0
0
0
0
0
0
0
0
0
0
0
0
0
0
0
0
0
0
0
0
1
1
0
0
0
0
0
0
0
0
0
0
0
0
0
0
0
0
0
0
0
0
1
1
0
0
0
0
0
0
0
0
0
0
0
0
0
0
0
0
0
0
0
0
0
0
0
0
0
0
0
0
0
0
0
0
0
1
1
0
0
0
0
0
0
0
0
0
0
0
0
0
0
0
0
0
0
0
0
1
1
0
0
0
0
0
0
0
0
0
0
0
0
0
0
0
0
0
0
0
0
0
0
0
0
0
0
0
0
0
0
0
0
0
1
1
0
0
0
0
0
0
0
0
0
0
0
0
0
0
0
0
0
0
0
0
1
1
0
0
0
0
0
0
0
0
0
0
0
0
0
0
0
0
0
0
0
0
0
0
0
0
0
0
0
0
0
0
0
0
0
1
1
0
0
0
0
0
0
0
0
0
0
0
0
0
0
0
0
0
0
0
0
1
1
0
0
0
0
0
0
0
0
0
0
0
0
0
0
0
0
0
0
0
0
0
0
0
0
0
0
0
0
0
0
0
0
0
1
1
0
0
0
0
0
0
0
0
0
0
0
0
0
0
0
0
0
0
0
0
1
1
0
0
0
0
0
0
0
0
0
0
0
0
0
0
0
0
0
0
0
0
0
0
0
0
0
0
0
0
0
0
0
0
0
1
1
0
0
0
0
0
0
0
0
0
0
0
0
0
0
0
0
0
0
0
0
1
1
0
0
0
0
0
0
0
0
0
0
0
0
0
0
0
0
0
0
0
0
0
0
0
0
0
0
0
0
0
0
0
0
0
1
1
0
0
0
0
0
0
0
0
0
0
0
0
0
0
0
0
0
0
0
0
1
1
0
0
0
0
0
0
0
0
0
0
0
0
0
0
0
0
0
0
0
0
0
0
0
0
0
0
0
0
0
0
0
0
0
1
1
0
0
0
0
0
0
0
0
0
0
0
0
0
0
0
0
0
0
0
0
1
1
0
0
0
0
0
0
0
0
0
0
0
0
0
0
0
0
0
0
0
0
0
0
0
0
0
0
0
0
0
0
0
0
0
1
1
0
0
0
0
0
0
0
0
0
0
0
0
0
0
0
0
0
0
0
0
1
1
0
0
0
0
0
0
0
0
0
0
0
0
0
0
0
0
0
0
0
0
0
0
0
0
0
0
0
0
0
0
0
0
0
1
1
0
0
0
0
0
0
0
0
0
0
0
0
0
0
0
0
0
0
0
0
1
1
0
0
0
0
0
0
0
0
0
0
0
0
0
0
0
0
0
0
0
0
0
0
0
0
0
0
0
0
0
0
0
0
0
1
1
0
0
0
0
0
0
0
0
0
0
0
0
0
0
0
0
0
0
0
0
1
1
0
0
0
0
0
0
0
0
0
0
0
0
0
0
0
0
0
0
0
0
0
0
0
0
0
0
0
0
0
0
0
0
0
1
1
0
0
0
0
0
0
0
0
0
0
0
0
0
0
0
0
0
0
0
0
1
1
0
0
0
0
0
0
0
0
0
0
0
0
0
0
0
0
0
0
0
0
0
0
0
0
0
0
0
0
0
0
0
0
0
1
1
0
0
0
0
0
0
0
0
0
0
0
0
0
0
0
0
0
0
0
0
1
1
0
0
0
0
0
0
0
0
0
0
0
0
0
0
0
0
0
0
0
0
0
0
0
0
0
0
0
0
0
0
0
0
0
1
1
0
0
0
0
0
0
0
0
0
0
0
0
0
0
0
0
0
0
0
0
1
1
0
0
0
0
0
0
0
0
0
0
0
0
0
0
0
0
0
0
0
0
0
0
0
0
0
0
0
0
0
0
0
0
0
1
1
0
0
0
0
0
0
0
0
0
0
0
0
0
0
0
0
0
0
0
0
1
1
0
0
0
0
0
0
0
0
0
0
0
0
0
0
0
0
0
0
0
0
0
0
0
0
0
0
0
0
0
0
0
0
0
1
1
0
0
0
0
0
0
0
0
0
0
0
0
0
0
0
0
0
0
0
0
1
1
0
0
0
0
0
0
0
0
0
0
0
0
0
0
0
0
0
0
0
0
0
0
0
0
0
0
0
0
0
0
0
0
0
1
1
0
0
0
0
0
0
0
0
0
0
0
0
0
0
0
0
0
0
0
0
1
1
0
0
0
0
0
0
0
0
0
0
0
0
0
0
0
0
0
0
0
0
0
0
0
0
0
0
0
0
0
0
0
0
0
1
1
0
0
0
0
0
0
0
0
0
0
0
0
0
0
0
0
0
0
0
0
1
1
0
0
0
0
0
0
0
0
0
0
0
0
0
0
0
0
0
0
0
0
0
0
0
0
0
0
0
0
0
0
0
0
0
1
1
0
0
0
0
0
0
0
0
0
0
0
0
0
0
0
0
0
0
0
0
1
1
0
0
0
0
0
0
0
0
0
0
0
0
0
0
0
0
0
0
0
0
0
0
0
0
0
0
0
0
0
0
0
0
0
1
1
0
0
0
0
0
0
0
0
0
0
0
0
0
0
0
0
0
0
0
0
1
1
0
0
0
0
0
0
0
0
0
0
0
0
0
0
0
0
0
0
0
0
0
0
0
0
0
0
0
0
0
0
0
0
0
1
1
1
1
1
1
1
1
1
1
1
1
1
1
1
1
1
1
1
1
1
1
1
1
1
1
1
1
1
1
1
1
1
1
1
1
1
1
1
1
1
1
1
1
1
1
1
1
1
1
1
1
1
1
1
1
1
1
				</DataArray>
				<DataArray type="Float64" Name="h" NumberOfComponents="1" Format="ascii">
1.4999917675
1.4999803917
1.4999606235
1.4999115567
1.4998144369
1.4996426295
1.4993648788
1.4989506808
1.4983767809
1.4976331507
1.4967266905
1.4956815821
1.4945367098
1.4933410398
1.4921482425
1.4910119934
1.4899822647
1.4891028729
1.4884101968
1.4879323069
1.4876884313
1.4876884313
1.0005372596
1.0007655187
1.0007241071
1.0006473894
1.0005462752
1.0004341418
1.0003241061
1.0002265974
1.0001478658
1.0000897341
1.0000504490
1.0000261681
1.0000124684
1.0000054310
1.0000021511
1.0000007701
1.0000002475
1.0000000708
1.0000000179
1.0000000039
1.0000000007
1.0000000001
1.0000000000
1.0000000000
1.0000000000
1.0000000000
1.0000000000
1.0000000000
1.0000000000
1.0000000000
1.0000000000
1.0000000000
1.0000000000
1.0000000000
1.0000000000
1.4999803917
1.4999570879
1.4999217061
1.4998381445
1.4996823043
1.4994221572
1.4990232361
1.4984556789
1.4977012272
1.4967584449
1.4956447570
1.4943948675
1.4930566448
1.4916856363
1.4903395222
1.4890737848
1.4879385886
1.4869769679
1.4862241109
1.4857068861
1.4854435910
1.4876884313
1.0007655187
1.0010704567
1.0010166786
1.0009163960
1.0007827780
1.0006323388
1.0004818285
1.0003452750
1.0002319173
1.0001455041
1.0000849550
1.0000459823
1.0000229778
1.0000105544
1.0000044348
1.0000016957
1.0000005864
1.0000001822
1.0000000504
1.0000000123
1.0000000026
1.0000000005
1.0000000001
1.0000000000
1.0000000000
1.0000000000
1.0000000000
1.0000000000
1.0000000000
1.0000000000
1.0000000000
1.0000000000
1.0000000000
1.0000000000
1.0000000000
1.4999550154
1.4999109955
1.4998534825
1.4997242647
1.4994977345
1.4991420796
1.4986261868
1.4979269191
1.4970350286
1.4959585331
1.4947229091
1.4933682795
1.4919449583
1.4905083276
1.4891140545
1.4878146187
1.4866569052
1.4856809089
1.4849193283
1.4843972156
1.4841317379
1.4863786274
1.0012174024
1.0016434174
1.0015691713
1.0014294707
1.0012405614
1.0010234865
1.0008006169
1.0005920123
1.0004124402
1.0002697785
1.0001650846
1.0000941551
1.0000498599
1.0000244151
1.0000110069
1.0000045467
1.0000017118
1.0000005839
1.0000001792
1.0000000491
1.0000000119
1.0000000025
1.0000000005
1.0000000001
1.0000000000
1.0000000000
1.0000000000
1.0000000000
1.0000000000
1.0000000000
1.0000000000
1.0000000000
1.0000000000
1.0000000000
1.0000000000
1.4998856682
1.4997920618
1.4996865707
1.4994602638
1.4990872479
1.4985389944
1.4977930930
1.4968403776
1.4956886395
1.4943628074
1.4929021671
1.4913557185
1.4897773786
1.4882216333
1.4867401335
1.4853797224
1.4841812538
1.4831791880
1.4824017234
1.4818706583
1.4816011596
1.4838484538
1.0022576931
1.0029357417
1.0028192542
1.0025976798
1.0022927353
1.0019338510
1.0015542925
1.0011864241
1.0008570019
1.0005836399
1.0003733322
1.0002234538
1.0001246718
1.0000645844
1.0000309362
1.0000136421
1.0000055116
1.0000020293
1.0000006768
1.0000002031
1.0000000544
1.0000000129
1.0000000027
1.0000000005
1.0000000001
1.0000000000
1.0000000000
1.0000000000
1.0000000000
1.0000000000
1.0000000000
1.0000000000
1.0000000000
1.0000000000
1.0000000000
1.4997312411
1.4995440621
1.4993594351
1.4989767966
1.4983757131
1.4975385046
1.4964596764
1.4951516588
1.4936453483
1.4919866334
1.4902306590
1.4884356805
1.4866583997
1.4849508387
1.4833586954
1.4819211656
1.4806711937
1.4796361112
1.4788384048
1.4782958163
1.4780210884
1.4802606515
1.0041473096
1.0052180767
1.0050367539
1.0046882206
1.0042004058
1.0036131584
1.0029745288
1.0023351460
1.0017413587
1.0012286423
1.0008170117
1.0005100783
1.0002978737
1.0001621014
1.0000818891
1.0000382478
1.0000164453
1.0000064784
1.0000023261
1.0000007567
1.0000002215
1.0000000579
1.0000000134
1.0000000027
1.0000000005
1.0000000001
1.0000000000
1.0000000000
1.0000000000
1.0000000000
1.0000000000
1.0000000000
1.0000000000
1.0000000000
1.0000000000
1.4994225845
1.4990785970
1.4987803092
1.4981783118
1.4972679088
1.4960539591
1.4945581952
1.4928217413
1.4909019621
1.4888659426
1.4867829371
1.4847178538
1.4827275433
1.4808593083
1.4791511386
1.4776332908
1.4763298783
1.4752604906
1.4744415677
1.4738867049
1.4736063116
1.4758224439
1.0072340657
1.0088295248
1.0085636399
1.0080471446
1.0073120094
1.0064069208
1.0053950959
1.0043490315
1.0033420498
1.0024379623
1.0016813368
1.0010919540
1.0006653960
1.0003790785
1.0002011834
1.0000990996
1.0000451296
1.0000189196
1.0000072680
1.0000025451
1.0000008077
1.0000002307
1.0000000588
1.0000000133
1.0000000026
1.0000000004
1.0000000001
1.0000000000
1.0000000000
1.0000000000
1.0000000000
1.0000000000
1.0000000000
1.0000000000
1.0000000000
1.4988593933
1.4982766753
1.4978324079
1.4969541638
1.4956656736
1.4940077133
1.4920395856
1.4898364991
1.4874828126
1.4850639177
1.4826587130
1.4803342473
1.4781438654
1.4761276575
1.4743144830
1.4727250359
1.4713744879
1.4702748887
1.4694370348
1.4688709111
1.4685851616
1.4707552558
1.0118706955
1.0140751549
1.0137149495
1.0130073226
1.0119822335
1.0106902307
1.0092037377
1.0076146645
1.0060266898
1.0045421210
1.0032454880
1.0021896479
1.0013897483
1.0008269306
1.0004597504
1.0002380346
1.0001143626
1.0000507921
1.0000207677
1.0000077815
1.0000026582
1.0000008231
1.0000002295
1.0000000571
1.0000000126
1.0000000024
1.0000000004
1.0000000001
1.0000000000
1.0000000000
1.0000000000
1.0000000000
1.0000000000
1.0000000000
1.0000000000
1.4979137287
1.4969980415
1.4963853043
1.4951929608
1.4934845457
1.4913481371
1.4888884934
1.4862177612
1.4834455963
1.4806711528
1.4779774923
1.4754288488
1.4730713992
1.4709358105
1.4690408398
1.4673975205
1.4660125086
1.4648910300
1.4640391204
1.4634641348
1.4631739074
1.4652702466
1.0182835498
1.0210853447
1.0206392656
1.0197519528
1.0184418713
1.0167489291
1.0147407217
1.0125160352
1.0102022621
1.0079436044
1.0058792825
1.0041181402
1.0027194148
1.0016872254
1.0009804831
1.0005320681
1.0002687751
1.0001259612
1.0000545663
1.0000217614
1.0000079536
1.0000026507
1.0000008009
1.0000002179
1.0000000530
1.0000000114
1.0000000021
1.0000000003
1.0000000000
1.0000000000
1.0000000000
1.0000000000
1.0000000000
1.0000000000
1.0000000000
1.4964422116
1.4950983268
1.4943113065
1.4927971812
1.4906654700
1.4880574132
1.4851266491
1.4820223554
1.4788766585
1.4757979617
1.4728686663
1.4701461039
1.4676664417
1.4654493717
1.4635030576
1.4618291039
1.4604263123
1.4592939962
1.4584345238
1.4578538664
1.4575603140
1.4595520485
1.0264288803
1.0296902593
1.0291893174
1.0281784224
1.0266543437
1.0246316415
1.0221532937
1.0193016107
1.0162057493
1.0130390361
1.0099988946
1.0072716324
1.0049940486
1.0032277164
1.0019573624
1.0011107491
1.0005882371
1.0002898783
1.0001325033
1.0000559805
1.0000217730
1.0000077618
1.0000025234
1.0000007439
1.0000001976
1.0000000469
1.0000000099
1.0000000018
1.0000000003
1.0000000000
1.0000000000
1.0000000000
1.0000000000
1.0000000000
1.0000000000
1.4943055657
1.4924506748
1.4915036203
1.4896953681
1.4871800190
1.4841502483
1.4808065440
1.4773326446
1.4738802021
1.4705636854
1.4674618397
1.4646227016
1.4620708552
1.4598142568
1.4578503741
1.4561717288
1.4547699009
1.4536391478
1.4527792781
1.4521962859
1.4519004884
1.4537548300
1.0359142077
1.0393888734
1.0388824266
1.0378418605
1.0362353100
1.0340414809
1.0312609973
1.0279322226
1.0241505987
1.0200832741
1.0159640576
1.0120601959
1.0086168010
1.0058001222
1.0036671574
1.0021725901
1.0012033830
1.0006216885
1.0002987694
1.0001331581
1.0000548483
1.0000207995
1.0000072301
1.0000022924
1.0000006592
1.0000001708
1.0000000396
1.0000000081
1.0000000015
1.0000000002
1.0000000000
1.0000000000
1.0000000000
1.0000000000
1.0000000000
1.4913904976
1.4889657751
1.4878916474
1.4858496320
1.4830295078
1.4796661446
1.4759995389
1.4722432575
1.4685658783
1.4650866038
1.4618797893
1.4589837285
1.4564111682
1.4541582541
1.4522118554
1.4505556635
1.4491744560
1.4480580958
1.4472048784
1.4466223928
1.4463249648
1.4480074035
1.0460603206
1.0494619454
1.0490054765
1.0480427505
1.0465118193
1.0443547187
1.0415237195
1.0379950325
1.0337948874
1.0290331977
1.0239264618
1.0187883185
1.0139755703
1.0098019183
1.0064604702
1.0039923000
1.0023088336
1.0012473588
1.0006282585
1.0002942799
1.0001278169
1.0000513073
1.0000189618
1.0000064243
1.0000019857
1.0000005568
1.0000001407
1.0000000318
1.0000000064
1.0000000011
1.0000000002
1.0000000000
1.0000000000
1.0000000000
1.0000000000
1.4876268175
1.4846038464
1.4834489325
1.4812570457
1.4782395706
1.4746588420
1.4707828393
1.4668482425
1.4630381029
1.4594765399
1.4562347278
1.4533424260
1.4508013288
1.4485961190
1.4467031470
1.4450972857
1.4437566498
1.4426671755
1.4418266856
1.4412462330
1.4409467803
1.4424210327
1.0560997287
1.0591853520
1.0588274863
1.0580356058
1.0567198281
1.0547942672
1.0521726481
1.0487713388
1.0445313350
1.0394616530
1.0336911853
1.0275024718
1.0213134338
1.0155893516
1.0107173477
1.0069072617
1.0041667148
1.0023497403
1.0012371082
1.0006069930
1.0002769148
1.0001171367
1.0000457931
1.0000164833
1.0000054401
1.0000016383
1.0000004477
1.0000001103
1.0000000243
1.0000000048
1.0000000008
1.0000000001
1.0000000000
1.0000000000
1.0000000000
1.4829957427
1.4793768433
1.4781935624
1.4759471004
1.4728546247
1.4691888044
1.4652316651
1.4612346254
1.4573922650
1.4538343265
1.4506310182
1.4478057033
1.4453503399
1.4432385985
1.4414362195
1.4399090223
1.4386284184
1.4375768460
1.4367528670
1.4361733904
1.4358696557
1.4370987446
1.0653951474
1.0680151318
1.0677921762
1.0672348557
1.0662261582
1.0646647269
1.0624460980
1.0594490656
1.0555430520
1.0506250510
1.0446846164
1.0378801363
1.0305848725
1.0233478876
1.0167581398
1.0112706929
1.0070903516
1.0041689699
1.0022896738
1.0011734855
1.0005603511
1.0002487676
1.0001023990
1.0000389556
1.0000136472
1.0000043843
1.0000012856
1.0000003422
1.0000000821
1.0000000176
1.0000000034
1.0000000006
1.0000000001
1.0000000000
1.0000000000
1.4775281769
1.4733418445
1.4721821644
1.4699766563
1.4669338523
1.4633202974
1.4594176763
1.4554825905
1.4517170001
1.4482562142
1.4451713920
1.4424815554
1.4401701480
1.4382001149
1.4365263437
1.4351053306
1.4339018685
1.4328955853
1.4320874067
1.4315032669
1.4311897944
1.4321396752
1.0735553402
1.0756516879
1.0755920323
1.0753083004
1.0746512809
1.0735135122
1.0717932374
1.0693621807
1.0660536527
1.0616800377
1.0560875033
1.0492499397
1.0413767911
1.0329646443
1.0247220520
1.0173668196
1.0113989955
1.0069853836
1.0039966625
1.0021347218
1.0010637050
1.0004937878
1.0002131034
1.0000852730
1.0000315395
1.0000107436
1.0000033567
1.0000009575
1.0000002480
1.0000000580
1.0000000121
1.0000000023
1.0000000004
1.0000000001
1.0000000000
1.4712946661
1.4665885814
1.4654996812
1.4634233693
1.4605485187
1.4571219588
1.4534118487
1.4496698278
1.4460993793
1.4428393538
1.4399621192
1.4374832514
1.4353782198
1.4335992760
1.4320903443
1.4307987775
1.4296834623
1.4287225472
1.4279215668
1.4273195875
1.4269857228
1.4276319767
1.0804181430
1.0819909885
1.0821255018
1.0821463388
1.0818593954
1.0811542348
1.0799460301
1.0781252400
1.0755282380
1.0719318810
1.0670815162
1.0607698337
1.0529709203
1.0439803025
1.0344608010
1.0253047092
1.0173433577
1.0110795987
1.0065992719
1.0036673550
1.0019020408
1.0009202284
1.0004147636
1.0001737966
1.0000675299
1.0000242559
1.0000080252
1.0000024360
1.0000006753
1.0000001700
1.0000000386
1.0000000079
1.0000000014
1.0000000003
1.0000000001
1.4643934151
1.4592277730
1.4582504357
1.4563812974
1.4537825283
1.4506714348
1.4472916079
1.4438794843
1.4406322604
1.4376874582
1.4351161594
1.4329293781
1.4310941425
1.4295520180
1.4282365979
1.4270874507
1.4260595069
1.4251317303
1.4243171253
1.4236728249
1.4232999941
1.4236366383
1.0859550994
1.0870287766
1.0874021674
1.0877679591
1.0878678789
1.0875866020
1.0868625259
1.0856198403
1.0837267797
1.0809720825
1.0770633417
1.0716695268
1.0645370176
1.0556718436
1.0455099253
1.0349304297
1.0250161749
1.0166702801
1.0103357333
1.0059696831
1.0032160536
1.0016170023
1.0007584543
1.0003314370
1.0001346651
1.0000507411
1.0000176759
1.0000056732
1.0000016709
1.0000004496
1.0000001099
1.0000000243
1.0000000048
1.0000000010
1.0000000003
1.4569398450
1.4513826387
1.4505518243
1.4489582914
1.4467339127
1.4440601762
1.4411472764
1.4382062683
1.4354182154
1.4329111669
1.4307491219
1.4289351049
1.4274264255
1.4261546196
1.4250452296
1.4240333950
1.4230737622
1.4221493943
1.4212838020
1.4205573341
1.4201156001
1.4201632388
1.0901798393
1.0907853663
1.0914665457
1.0922392278
1.0927580665
1.0928994384
1.0926260182
1.0919008451
1.0906384990
1.0886715290
1.0857261280
1.0814248330
1.0753562375
1.0672417106
1.0571757023
1.0458094266
1.0342814159
1.0238425896
1.0153922999
1.0092351305
1.0051602317
1.0026897759
1.0013087665
1.0005941656
1.0002513467
1.0000988688
1.0000360694
1.0000121680
1.0000037827
1.0000010794
1.0000002815
1.0000000667
1.0000000144
1.0000000032
1.0000000011
1.4490592657
1.4431838813
1.4425304101
1.4412739951
1.4395149187
1.4373949855
1.4350836824
1.4327562898
1.4305658161
1.4286194854
1.4269653401
1.4255932208
1.4244495455
1.4234582347
1.4225416843
1.4216365196
1.4207025170
1.4197305929
1.4187569361
1.4178891746
1.4173327310
1.4171421013
1.0930989147
1.0932710023
1.0943643850
1.0956349581
1.0966285852
1.0972121811
1.0973716757
1.0971080379
1.0963856205
1.0950958300
1.0930202649
1.0898020720
1.0849633820
1.0780178465
1.0687083401
1.0573062560
1.0447623013
1.0324935596
1.0218496710
1.0136162255
1.0078830942
1.0042515341
1.0021398939
1.0010057354
1.0004411521
1.0001803305
1.0000685503
1.0000241718
1.0000078827
1.0000023693
1.0000006539
1.0000001650
1.0000000381
1.0000000093
1.0000000034
1.4408853563
1.4347698996
1.4343220995
1.4334599270
1.4322517963
1.4307969732
1.4292173069
1.4276411058
1.4261793699
1.4249045824
1.4238380463
1.4229509869
1.4221794511
1.4214451675
1.4206755052
1.4198168934
1.4188406377
1.4177485407
1.4165891143
1.4154980828
1.4147586975
1.4144064926
1.0946873380
1.0944658061
1.0961286091
1.0980251187
1.0995801370
1.1006545765
1.1012556695
1.1014185618
1.1011550742
1.1004191014
1.0990657435
1.0968034391
1.0931679897
1.0875692865
1.0794729393
1.0687287399
1.0559018651
1.0423187773
1.0296403279
1.0191853752
1.0115012721
1.0064079692
1.0033281264
1.0016141336
1.0007313388
1.0003093192
1.0001219320
1.0000447035
1.0000152041
1.0000047830
1.0000013872
1.0000003696
1.0000000907
1.0000000239
1.0000000094
1.4325610455
1.4262880499
1.4260725000
1.4256581716
1.4250812300
1.4243952189
1.4236666401
1.4229642835
1.4223415485
1.4218210970
1.4213869422
1.4209883402
1.4205549784
1.4200155860
1.4193134545
1.4184143100
1.4173067686
1.4160041474
1.4145623205
1.4131393979
1.4121153817
1.4116919793
1.0948510111
1.0942781210
1.0967531920
1.0994584766
1.1017093488
1.1033675370
1.1044564942
1.1050405699
1.1051760609
1.1048788288
1.1040841744
1.1025902894
1.1000028956
1.0957234040
1.0890523504
1.0794742017
1.0670766119
1.0528529231
1.0385341306
1.0259029404
1.0160720543
1.0092394381
1.0049412979
1.0024658059
1.0011498820
1.0005011340
1.0002039084
1.0000773366
1.0000272808
1.0000089277
1.0000027028
1.0000007547
1.0000001953
1.0000000551
1.0000000228
1.4242387226
1.4178939147
1.4179348639
1.4180168654
1.4181425549
1.4183152800
1.4185369603
1.4188029566
1.4190929533
1.4193657977
1.4195607111
1.4196061084
1.4194339368
1.4189924108
1.4182528147
1.4172086259
1.4158688728
1.4142548980
1.4124182291
1.4105221649
1.4090574078
1.4086501051
1.0933264028
1.0924375239
1.0961245053
1.0999246558
1.1031008570
1.1055162684
1.1071977359
1.1082354079
1.1087328292
1.1087711919
1.1083701826
1.1074300849
1.1056605901
1.1025257310
1.0972713797
1.0891270400
1.0777198736
1.0635539440
1.0481619083
1.0336036276
1.0215708945
1.0127826526
1.0070266865
1.0035983381
1.0017213050
1.0007699549
1.0003219578
1.0001257077
1.0000457484
1.0000154840
1.0000048620
1.0000014130
1.0000003825
1.0000001140
1.0000000498
1.4160799080
1.4097492360
1.4100667008
1.4106843488
1.4115686859
1.4126667088
1.4139050279
1.4151912226
1.4164166867
1.4174664121
1.4182330849
1.4186313345
1.4186082014
1.4181452387
1.4172523443
1.4159558034
1.4142837530
1.4122567093
1.4099012476
1.4073489486
1.4051920996
1.4048703539
1.0894378326
1.0882483311
1.0938827633
1.0993028479
1.1038394639
1.1073323418
1.1097960186
1.1113588050
1.1121932393
1.1124633908
1.1122836383
1.1116648495
1.1104393037
1.1081793084
1.1041637607
1.0974881348
1.0874098773
1.0738983095
1.0580691740
1.0420048942
1.0278780438
1.0170144255
1.0095985851
1.0050323001
1.0024617128
1.0011260010
1.0004818256
1.0001927669
1.0000720048
1.0000250646
1.0000081135
1.0000024376
1.0000006852
1.0000002140
1.0000000973
1.4082507550
1.4020155017
1.4026224849
1.4038002870
1.4054753254
1.4075306785
1.4098063671
1.4121092737
1.4142320998
1.4159824753
1.4172119698
1.4178339496
1.4178255988
1.4172146258
1.4160570487
1.4144131769
1.4123249632
1.4097981003
1.4068022900
1.4033653476
1.4000943731
1.3999033361
1.0815041873
1.0799959771
1.0892140401
1.0974025061
1.1041512206
1.1092554961
1.1127652232
1.1149233471
1.1160373869
1.1163973023
1.1162339373
1.1156775544
1.1146910045
1.1129783520
1.1099097313
1.1045496758
1.0959056935
1.0834588526
1.0677852039
1.0507373760
1.0347784174
1.0218404659
1.0126272110
1.0067632621
1.0033736973
1.0015724978
1.0006858284
1.0002798924
1.0001067811
1.0000380230
1.0000126137
1.0000038924
1.0000011279
1.0000003655
1.0000001719
1.4009143922
1.3948450591
1.3957447022
1.3974867597
1.3999525967
1.4029532613
1.4062319368
1.4094854774
1.4124036193
1.4147202682
1.4162569341
1.4169403926
1.4167916645
1.4158945833
1.4143573463
1.4122778255
1.4097132659
1.4066489546
1.4029642798
1.3984545412
1.3934042812
1.3933712927
1.0649792090
1.0630780294
1.0807263832
1.0944777246
1.1049378780
1.1122975303
1.1170087377
1.1196681749
1.1208527646
1.1210444848
1.1206156888
1.1198186513
1.1187414921
1.1172219246
1.1147489762
1.1104276284
1.1031285420
1.0919434592
1.0768865531
1.0593903129
1.0419762814
1.0270919695
1.0160307347
1.0087550731
1.0044418692
1.0021029916
1.0009313363
1.0003860786
1.0001497329
1.0000542607
1.0000183436
1.0000057782
1.0000017138
1.0000005714
1.0000002757
1.3942239716
1.3883741325
1.3895578589
1.3918445009
1.3950652183
1.3989517580
1.4031430218
1.4072214763
1.4107754397
1.4134725853
1.4151143382
1.4156482004
1.4151402479
1.4137261929
1.4115619490
1.4087890926
1.4055156132
1.4017995892
1.3976097505
1.3927073971
1.3865128768
1.3866708656
1.0251306986
1.0226118442
1.0674608058
1.0932698433
1.1091646495
1.1187287897
1.1240470486
1.1265383527
1.1272008433
1.1267360818
1.1256397654
1.1242532097
1.1227554278
1.1210921055
1.1188674745
1.1152624443
1.1090967367
1.0991854451
1.0850347536
1.0675583381
1.0491217792
1.0325313379
1.0196718809
1.0109353033
1.0056296247
1.0026994716
1.0012097711
1.0005074234
1.0001991854
1.0000731058
1.0000250526
1.0000080083
1.0000024150
1.0000008216
1.0000004036
1.3883150480
1.3827164574
1.3841642050
1.3869532065
1.3908606069
1.3955346060
1.4005074524
1.4052490829
1.4092526588
1.4121265119
1.4136522370
1.4137828889
1.4125895620
1.4101818883
1.4066228597
1.4018445551
1.3955416095
1.3869777290
1.3745678989
1.3548703325
1.3199133006
1.2507155952
1.1632758904
1.1690991695
1.1028720192
1.1071548632
1.1186129578
1.1266085317
1.1321194019
1.1353413955
1.1366136100
1.1363886940
1.1351213544
1.1332092417
1.1309832924
1.1287096177
1.1265590301
1.1245238259
1.1222923994
1.1191273553
1.1138526950
1.1051090976
1.0919911619
1.0748851987
1.0558497388
1.0378715688
1.0233634018
1.0131955037
1.0068785680
1.0033320600
1.0015065452
1.0006371548
1.0002521666
1.0000933314
1.0000322663
1.0000104114
1.0000031727
1.0000010929
1.0000005430
1.3832976233
1.3779576655
1.3796400525
1.3828720874
1.3873766411
1.3927202515
1.3983348771
1.4035901505
1.4079009640
1.4108340794
1.4121661722
1.4118678940
1.4100309252
1.4067725466
1.4021421254
1.3960401829
1.3881345193
1.3777301022
1.3635294999
1.3431454043
1.3120565885
1.2622161276
1.1602328887
1.1665164244
1.1326427612
1.1297253698
1.1341563560
1.1386865720
1.1419967313
1.1436797519
1.1438027762
1.1426534087
1.1405881896
1.1379549469
1.1350673235
1.1321995955
1.1295571614
1.1271970320
1.1248997593
1.1220251178
1.1174455157
1.1097150690
1.0976288768
1.0811058146
1.0618292602
1.0428117358
1.0268864093
1.0153992706
1.0081122040
1.0039610091
1.0018022561
1.0007663337
1.0003047889
1.0001133447
1.0000393714
1.0000127658
1.0000039106
1.0000013551
1.0000006769
1.3792474614
1.3741491577
1.3760291409
1.3796316682
1.3846294440
1.3905157098
1.3966360803
1.4022788747
1.4068016540
1.4097481451
1.4109035099
1.4102655301
1.4079572805
1.4041230128
1.3988341108
1.3920183076
1.3834008471
1.3724246291
1.3581195904
1.3388674404
1.3119679377
1.2733315456
1.2040394932
1.1887582682
1.1613768005
1.1516512943
1.1494599007
1.1496890706
1.1502492870
1.1501802547
1.1491629441
1.1472232202
1.1445530133
1.1414077087
1.1380573112
1.1347662674
1.1317585723
1.1291387551
1.1267625015
1.1240778973
1.1200203905
1.1131136901
1.1019518584
1.0860796128
1.0668106584
1.0470797628
1.0300186432
1.0173977602
1.0092439632
1.0045409278
1.0020749686
1.0008850736
1.0003528738
1.0001314867
1.0000457494
1.0000148550
1.0000045562
1.0000015806
1.0000007905
1.3762036663
1.3713079332
1.3733419910
1.3772317082
1.3826079197
1.3889043251
1.3953990768
1.4013205562
1.4059884160
1.4089366965
1.4099648920
1.4090983316
1.4064904553
1.4023134879
1.3966652708
1.3895062810
1.3806169433
1.3695461665
1.3555347403
1.3373880347
1.3132586682
1.2805172086
1.2288478496
1.2050088261
1.1803656834
1.1672132658
1.1610045031
1.1581628240
1.1565828440
1.1550882456
1.1531310587
1.1505499424
1.1474055373
1.1438731706
1.1401810517
1.1365791011
1.1332993414
1.1304772518
1.1280226491
1.1254526576
1.1217611285
1.1154702983
1.1050490274
1.0897697367
1.0706350419
1.0504584078
1.0325596540
1.0190468899
1.0101870999
1.0050260298
1.0023028824
1.0009838530
1.0003925722
1.0001463114
1.0000508947
1.0000165145
1.0000050594
1.0000017521
1.0000008749
1.3741777135
1.3694275177
1.3715670671
1.3756525234
1.3812846683
1.3878553798
1.3945969003
1.4006987708
1.4054584421
1.4084074940
1.4093587134
1.4083586891
1.4055832938
1.4012252863
1.3954018925
1.3880964490
1.3791244712
1.3680964525
1.3543666694
1.3369541402
1.3144210331
1.2848309483
1.2424154646
1.2153847536
1.1917144407
1.1768467123
1.1684155817
1.1637132452
1.1607641805
1.1583274389
1.1557388967
1.1527255809
1.1492632099
1.1454728803
1.1415535896
1.1377442697
1.1342808274
1.1313177654
1.1287998839
1.1262910936
1.1228286318
1.1169433329
1.1070335231
1.0921969729
1.0732159330
1.0527919057
1.0343478272
1.0202227987
1.0108647032
1.0053754952
1.0024668631
1.0010546028
1.0004207967
1.0001567455
1.0000544698
1.0000176493
1.0000053966
1.0000018640
1.0000009286
1.3731672787
1.3684930640
1.3706861699
1.3748707111
1.3806317751
1.3873397042
1.3942035836
1.4003939970
1.4051983352
1.4081481994
1.4090641002
1.4080039868
1.4051553760
1.4007215120
1.3948293154
1.3874730892
1.3784843083
1.3675002597
1.3539230648
1.3368601959
1.3150435048
1.2868345785
1.2483999088
1.2203644599
1.1969916945
1.1814044717
1.1719919811
1.1664268569
1.1628228880
1.1599264385
1.1570264511
1.1537990994
1.1501791865
1.1462608928
1.1422285171
1.1383153728
1.1347590979
1.1317233779
1.1291702223
1.1266871049
1.1233341561
1.1176492653