<VTKFile type="UnstructuredGrid" version="0.1">
	<UnstructuredGrid>
		<Piece NumberOfPoints="13548" NumberOfCells="3387">
			<CellData>
				<DataArray type="Int32" Name="ghost" NumberOfComponents="1" Format="ascii">
1
1
1
1
1
1
1
1
1
1
1
1
1
1
1
1
1
1
1
1
1
1
1
1
1
1
1
1
1
1
1
1
1
1
1
1
1
1
1
1
1
1
1
1
1
1
1
1
1
1
1
1
1
1
1
1
1
1
0
0
0
0
0
0
0
0
0
0
0
0
0
0
0
0
0
0
0
0
1
1
0
0
0
0
0
0
0
0
0
0
0
0
0
0
0
0
0
0
0
0
0
0
0
0
0
0
0
0
0
0
0
0
0
1
1
0
0
0
0
0
0
0
0
0
0
0
0
0
0
0
0
0
0
0
0
1
1
0
0
0
0
0
0
0
0
0
0
0
0
0
0
0
0
0
0
0
0
0
0
0
0
0
0
0
0
0
0
0
0
0
1
1
0
0
0
0
0
0
0
0
0
0
0
0
0
0
0
0
0
0
0
0
1
1
0
0
0
0
0
0
0
0
0
0
0
0
0
0
0
0
0
0
0
0
0
0
0
0
0
0
0
0
0
0
0
0
0
1
1
0
0
0
0
0
0
0
0
0
0
0
0
0
0
0
0
0
0
0
0
1
1
0
0
0
0
0
0
0
0
0
0
0
0
0
0
0
0
0
0
0
0
0
0
0
0
0
0
0
0
0
0
0
0
0
1
1
0
0
0
0
0
0
0
0
0
0
0
0
0
0
0
0
0
0
0
0
1
1
0
0
0
0
0
0
0
0
0
0
0
0
0
0
0
0
0
0
0
0
0
0
0
0
0
0
0
0
0
0
0
0
0
1
1
0
0
0
0
0
0
0
0
0
0
0
0
0
0
0
0
0
0
0
0
1
1
0
0
0
0
0
0
0
0
0
0
0
0
0
0
0
0
0
0
0
0
0
0
0
0
0
0
0
0
0
0
0
0
0
1
1
0
0
0
0
0
0
0
0
0
0
0
0
0
0
0
0
0
0
0
0
1
1
0
0
0
0
0
0
0
0
0
0
0
0
0
0
0
0
0
0
0
0
0
0
0
0
0
0
0
0
0
0
0
0
0
1
1
0
0
0
0
0
0
0
0
0
0
0
0
0
0
0
0
0
0
0
0
1
1
0
0
0
0
0
0
0
0
0
0
0
0
0
0
0
0
0
0
0
0
0
0
0
0
0
0
0
0
0
0
0
0
0
1
1
0
0
0
0
0
0
0
0
0
0
0
0
0
0
0
0
0
0
0
0
1
1
0
0
0
0
0
0
0
0
0
0
0
0
0
0
0
0
0
0
0
0
0
0
0
0
0
0
0
0
0
0
0
0
0
1
1
0
0
0
0
0
0
0
0
0
0
0
0
0
0
0
0
0
0
0
0
1
1
0
0
0
0
0
0
0
0
0
0
0
0
0
0
0
0
0
0
0
0
0
0
0
0
0
0
0
0
0
0
0
0
0
1
1
0
0
0
0
0
0
0
0
0
0
0
0
0
0
0
0
0
0
0
0
1
1
0
0
0
0
0
0
0
0
0
0
0
0
0
0
0
0
0
0
0
0
0
0
0
0
0
0
0
0
0
0
0
0
0
1
1
0
0
0
0
0
0
0
0
0
0
0
0
0
0
0
0
0
0
0
0
1
1
0
0
0
0
0
0
0
0
0
0
0
0
0
0
0
0
0
0
0
0
0
0
0
0
0
0
0
0
0
0
0
0
0
1
1
0
0
0
0
0
0
0
0
0
0
0
0
0
0
0
0
0
0
0
0
1
1
0
0
0
0
0
0
0
0
0
0
0
0
0
0
0
0
0
0
0
0
0
0
0
0
0
0
0
0
0
0
0
0
0
1
1
0
0
0
0
0
0
0
0
0
0
0
0
0
0
0
0
0
0
0
0
1
1
0
0
0
0
0
0
0
0
0
0
0
0
0
0
0
0
0
0
0
0
0
0
0
0
0
0
0
0
0
0
0
0
0
1
1
0
0
0
0
0
0
0
0
0
0
0
0
0
0
0
0
0
0
0
0
1
1
0
0
0
0
0
0
0
0
0
0
0
0
0
0
0
0
0
0
0
0
0
0
0
0
0
0
0
0
0
0
0
0
0
1
1
0
0
0
0
0
0
0
0
0
0
0
0
0
0
0
0
0
0
0
0
1
1
0
0
0
0
0
0
0
0
0
0
0
0
0
0
0
0
0
0
0
0
0
0
0
0
0
0
0
0
0
0
0
0
0
1
1
0
0
0
0
0
0
0
0
0
0
0
0
0
0
0
0
0
0
0
0
1
1
0
0
0
0
0
0
0
0
0
0
0
0
0
0
0
0
0
0
0
0
0
0
0
0
0
0
0
0
0
0
0
0
0
1
1
0
0
0
0
0
0
0
0
0
0
0
0
0
0
0
0
0
0
0
0
1
1
0
0
0
0
0
0
0
0
0
0
0
0
0
0
0
0
0
0
0
0
0
0
0
0
0
0
0
0
0
0
0
0
0
1
1
0
0
0
0
0
0
0
0
0
0
0
0
0
0
0
0
0
0
0
0
1
1
0
0
0
0
0
0
0
0
0
0
0
0
0
0
0
0
0
0
0
0
0
0
0
0
0
0
0
0
0
0
0
0
0
1
1
0
0
0
0
0
0
0
0
0
0
0
0
0
0
0
0
0
0
0
0
1
1
0
0
0
0
0
0
0
0
0
0
0
0
0
0
0
0
0
0
0
0
0
0
0
0
0
0
0
0
0
0
0
0
0
1
1
0
0
0
0
0
0
0
0
0
0
0
0
0
0
0
0
0
0
0
0
1
1
0
0
0
0
0
0
0
0
0
0
0
0
0
0
0
0
0
0
0
0
0
0
0
0
0
0
0
0
0
0
0
0
0
1
1
0
0
0
0
0
0
0
0
0
0
0
0
0
0
0
0
0
0
0
0
1
1
0
0
0
0
0
0
0
0
0
0
0
0
0
0
0
0
0
0
0
0
0
0
0
0
0
0
0
0
0
0
0
0
0
1
1
0
0
0
0
0
0
0
0
0
0
0
0
0
0
0
0
0
0
0
0
1
1
0
0
0
0
0
0
0
0
0
0
0
0
0
0
0
0
0
0
0
0
0
0
0
0
0
0
0
0
0
0
0
0
0
1
1
0
0
0
0
0
0
0
0
0
0
0
0
0
0
0
0
0
0
0
0
1
1
0
0
0
0
0
0
0
0
0
0
0
0
0
0
0
0
0
0
0
0
0
0
0
0
0
0
0
0
0
0
0
0
0
1
1
0
0
0
0
0
0
0
0
0
0
0
0
0
0
0
0
0
0
0
0
0
1
1
0
0
0
0
0
0
0
0
0
0
0
0
0
0
0
0
0
0
0
0
0
0
0
0
0
0
0
0
0
0
0
0
0
0
1
1
0
0
0
0
0
0
0
0
0
0
0
0
0
0
0
0
0
0
0
0
0
0
0
0
0
0
0
0
0
0
0
0
0
0
0
0
0
0
0
0
0
0
0
0
0
0
0
0
0
0
0
0
0
0
0
0
0
1
1
0
0
0
0
0
0
0
0
0
0
0
0
0
0
0
0
0
0
0
0
0
0
0
0
0
0
0
0
0
0
0
0
0
0
0
0
0
0
0
0
0
0
0
0
0
0
0
0
0
0
0
0
0
0
0
0
0
1
1
0
0
0
0
0
0
0
0
0
0
0
0
0
0
0
0
0
0
0
0
0
0
0
0
0
0
0
0
0
0
0
0
0
0
0
0
0
0
0
0
0
0
0
0
0
0
0
0
0
0
0
0
0
0
0
0
0
1
1
0
0
0
0
0
0
0
0
0
0
0
0
0
0
0
0
0
0
0
0
0
0
0
0
0
0
0
0
0
0
0
0
0
0
0
0
0
0
0
0
0
0
0
0
0
0
0
0
0
0
0
0
0
0
0
0
0
1
1
0
0
0
0
0
0
0
0
0
0
0
0
0
0
0
0
0
0
0
0
0
0
0
0
0
0
0
0
0
0
0
0
0
0
0
0
0
0
0
0
0
0
0
0
0
0
0
0
0
0
0
0
0
0
0
0
0
1
1
0
0
0
0
0
0
0
0
0
0
0
0
0
0
0
0
0
0
0
0
0
0
0
0
0
0
0
0
0
0
0
0
0
0
0
0
0
0
0
0
0
0
0
0
0
0
0
0
0
0
0
0
0
0
0
0
0
1
1
0
0
0
0
0
0
0
0
0
0
0
0
0
0
0
0
0
0
0
0
0
0
0
0
0
0
0
0
0
0
0
0
0
0
0
0
0
0
0
0
0
0
0
0
0
0
0
0
0
0
0
0
0
0
0
0
0
1
1
0
0
0
0
0
0
0
0
0
0
0
0
0
0
0
0
0
0
0
0
0
0
0
0
0
0
0
0
0
0
0
0
0
0
0
0
0
0
0
0
0
0
0
0
0
0
0
0
0
0
0
0
0
0
0
0
0
1
1
0
0
0
0
0
0
0
0
0
0
0
0
0
0
0
0
0
0
0
0
0
0
0
0
0
0
0
0
0
0
0
0
0
0
0
0
0
0
0
0
0
0
0
0
0
0
0
0
0
0
0
0
0
0
0
0
0
1
1
0
0
0
0
0
0
0
0
0
0
0
0
0
0
0
0
0
0
0
0
0
0
0
0
0
0
0
0
0
0
0
0
0
0
0
0
0
0
0
0
0
0
0
0
0
0
0
0
0
0
0
0
0
0
0
0
0
1
1
0
0
0
0
0
0
0
0
0
0
0
0
0
0
0
0
0
0
0
0
0
1
1
0
0
0
0
0
0
0
0
0
0
0
0
0
0
0
0
0
0
0
0
0
0
0
0
0
0
0
0
0
0
0
0
0
0
1
1
0
0
0
0
0
0
0
0
0
0
0
0
0
0
0
0
0
0
0
0
1
1
0
0
0
0
0
0
0
0
0
0
0
0
0
0
0
0
0
0
0
0
0
0
0
0
0
0
0
0
0
0
0
0
0
1
1
0
0
0
0
0
0
0
0
0
0
0
0
0
0
0
0
0
0
0
0
1
1
0
0
0
0
0
0
0
0
0
0
0
0
0
0
0
0
0
0
0
0
0
0
0
0
0
0
0
0
0
0
0
0
0
1
1
0
0
0
0
0
0
0
0
0
0
0
0
0
0
0
0
0
0
0
0
1
1
0
0
0
0
0
0
0
0
0
0
0
0
0
0
0
0
0
0
0
0
0
0
0
0
0
0
0
0
0
0
0
0
0
1
1
0
0
0
0
0
0
0
0
0
0
0
0
0
0
0
0
0
0
0
0
1
1
0
0
0
0
0
0
0
0
0
0
0
0
0
0
0
0
0
0
0
0
0
0
0
0
0
0
0
0
0
0
0
0
0
1
1
0
0
0
0
0
0
0
0
0
0
0
0
0
0
0
0
0
0
0
0
1
1
0
0
0
0
0
0
0
0
0
0
0
0
0
0
0
0
0
0
0
0
0
0
0
0
0
0
0
0
0
0
0
0
0
1
1
0
0
0
0
0
0
0
0
0
0
0
0
0
0
0
0
0
0
0
0
1
1
0
0
0
0
0
0
0
0
0
0
0
0
0
0
0
0
0
0
0
0
0
0
0
0
0
0
0
0
0
0
0
0
0
1
1
0
0
0
0
0
0
0
0
0
0
0
0
0
0
0
0
0
0
0
0
1
1
0
0
0
0
0
0
0
0
0
0
0
0
0
0
0
0
0
0
0
0
0
0
0
0
0
0
0
0
0
0
0
0
0
1
1
0
0
0
0
0
0
0
0
0
0
0
0
0
0
0
0
0
0
0
0
1
1
0
0
0
0
0
0
0
0
0
0
0
0
0
0
0
0
0
0
0
0
0
0
0
0
0
0
0
0
0
0
0
0
0
1
1
0
0
0
0
0
0
0
0
0
0
0
0
0
0
0
0
0
0
0
0
1
1
0
0
0
0
0
0
0
0
0
0
0
0
0
0
0
0
0
0
0
0
0
0
0
0
0
0
0
0
0
0
0
0
0
1
1
0
0
0
0
0
0
0
0
0
0
0
0
0
0
0
0
0
0
0
0
1
1
0
0
0
0
0
0
0
0
0
0
0
0
0
0
0
0
0
0
0
0
0
0
0
0
0
0
0
0
0
0
0
0
0
1
1
0
0
0
0
0
0
0
0
0
0
0
0
0
0
0
0
0
0
0
0
1
1
0
0
0
0
0
0
0
0
0
0
0
0
0
0
0
0
0
0
0
0
0
0
0
0
0
0
0
0
0
0
0
0
0
1
1
0
0
0
0
0
0
0
0
0
0
0
0
0
0
0
0
0
0
0
0
1
1
0
0
0
0
0
0
0
0
0
0
0
0
0
0
0
0
0
0
0
0
0
0
0
0
0
0
0
0
0
0
0
0
0
1
1
0
0
0
0
0
0
0
0
0
0
0
0
0
0
0
0
0
0
0
0
1
1
0
0
0
0
0
0
0
0
0
0
0
0
0
0
0
0
0
0
0
0
0
0
0
0
0
0
0
0
0
0
0
0
0
1
1
0
0
0
0
0
0
0
0
0
0
0
0
0
0
0
0
0
0
0
0
1
1
0
0
0
0
0
0
0
0
0
0
0
0
0
0
0
0
0
0
0
0
0
0
0
0
0
0
0
0
0
0
0
0
0
1
1
0
0
0
0
0
0
0
0
0
0
0
0
0
0
0
0
0
0
0
0
1
1
0
0
0
0
0
0
0
0
0
0
0
0
0
0
0
0
0
0
0
0
0
0
0
0
0
0
0
0
0
0
0
0
0
1
1
0
0
0
0
0
0
0
0
0
0
0
0
0
0
0
0
0
0
0
0
1
1
0
0
0
0
0
0
0
0
0
0
0
0
0
0
0
0
0
0
0
0
0
0
0
0
0
0
0
0
0
0
0
0
0
1
1
0
0
0
0
0
0
0
0
0
0
0
0
0
0
0
0
0
0
0
0
1
1
0
0
0
0
0
0
0
0
0
0
0
0
0
0
0
0
0
0
0
0
0
0
0
0
0
0
0
0
0
0
0
0
0
1
1
0
0
0
0
0
0
0
0
0
0
0
0
0
0
0
0
0
0
0
0
1
1
0
0
0
0
0
0
0
0
0
0
0
0
0
0
0
0
0
0
0
0
0
0
0
0
0
0
0
0
0
0
0
0
0
1
1
0
0
0
0
0
0
0
0
0
0
0
0
0
0
0
0
0
0
0
0
1
1
0
0
0
0
0
0
0
0
0
0
0
0
0
0
0
0
0
0
0
0
0
0
0
0
0
0
0
0
0
0
0
0
0
1
1
0
0
0
0
0
0
0
0
0
0
0
0
0
0
0
0
0
0
0
0
1
1
0
0
0
0
0
0
0
0
0
0
0
0
0
0
0
0
0
0
0
0
0
0
0
0
0
0
0
0
0
0
0
0
0
1
1
0
0
0
0
0
0
0
0
0
0
0
0
0
0
0
0
0
0
0
0
1
1
0
0
0
0
0
0
0
0
0
0
0
0
0
0
0
0
0
0
0
0
0
0
0
0
0
0
0
0
0
0
0
0
0
1
1
1
1
1
1
1
1
1
1
1
1
1
1
1
1
1
1
1
1
1
1
1
1
1
1
1
1
1
1
1
1
1
1
1
1
1
1
1
1
1
1
1
1
1
1
1
1
1
1
1
1
1
1
1
1
1
1
				</DataArray>
				<DataArray type="Float64" Name="h" NumberOfComponents="1" Format="ascii">
1.4999968694
1.4999917675
1.4999815279
1.4999545411
1.4998973253
1.4997892949
1.4996041097
1.4993132270
1.4988913242
1.4983223219
1.4976042113
1.4967511574
1.4957926110
1.4947698922
1.4937313460
1.4927275541
1.4918071963
1.4910140167
1.4903849701
1.4899489179
1.4897257705
1.4897257705
1.0003696017
1.0005372596
1.0005059399
1.0004483313
1.0003732959
1.0002914396
1.0002127820
1.0001448327
1.0000915881
1.0000536076
1.0000289248
1.0000143241
1.0000064795
1.0000026631
1.0000009885
1.0000003291
1.0000000975
1.0000000254
1.0000000058
1.0000000011
1.0000000002
1.0000000000
1.0000000000
1.0000000000
1.0000000000
1.0000000000
1.0000000000
1.0000000000
1.0000000000
1.0000000000
1.0000000000
1.0000000000
1.0000000000
1.0000000000
1.0000000000
1.4999917675
1.4999803917
1.4999606235
1.4999115567
1.4998144369
1.4996426295
1.4993648788
1.4989506808
1.4983767809
1.4976331507
1.4967266905
1.4956815821
1.4945367098
1.4933410398
1.4921482425
1.4910119934
1.4899822647
1.4891028729
1.4884101968
1.4879323069
1.4876884313
1.4897257705
1.0005372596
1.0007655187
1.0007241071
1.0006473894
1.0005462752
1.0004341418
1.0003241061
1.0002265974
1.0001478658
1.0000897341
1.0000504490
1.0000261681
1.0000124684
1.0000054310
1.0000021511
1.0000007701
1.0000002475
1.0000000708
1.0000000179
1.0000000039
1.0000000007
1.0000000001
1.0000000000
1.0000000000
1.0000000000
1.0000000000
1.0000000000
1.0000000000
1.0000000000
1.0000000000
1.0000000000
1.0000000000
1.0000000000
1.0000000000
1.0000000000
1.4999788078
1.4999550154
1.4999197963
1.4998375608
1.4996862540
1.4994368480
1.4990584260
1.4985244627
1.4978189090
1.4969406853
1.4959054656
1.4947443930
1.4935006411
1.4922247281
1.4909696555
1.4897870012
1.4887239758
1.4878215875
1.4871137809
1.4866267796
1.4863786274
1.4884387076
1.0008869204
1.0012174024
1.0011581936
1.0010474419
1.0008991382
1.0007310350
1.0005614404
1.0004060536
1.0002756185
1.0001749566
1.0001034735
1.0000567948
1.0000288132
1.0000134512
1.0000057508
1.0000022396
1.0000007897
1.0000002504
1.0000000708
1.0000000177
1.0000000039
1.0000000007
1.0000000001
1.0000000000
1.0000000000
1.0000000000
1.0000000000
1.0000000000
1.0000000000
1.0000000000
1.0000000000
1.0000000000
1.0000000000
1.0000000000
1.0000000000
1.4999409126
1.4998856682
1.4998152333
1.4996593321
1.4993916417
1.4989811485
1.4984000977
1.4976313422
1.4966732130
1.4955411851
1.4942663793
1.4928916810
1.4914670987
1.4900451823
1.4886771750
1.4874105241
1.4862872627
1.4853432408
1.4846079861
1.4841044077
1.4838484538
1.4859460307
1.0017096401
1.0022576931
1.0021609103
1.0019778282
1.0017281592
1.0014380744
1.0011363021
1.0008496701
1.0005990463
1.0003967153
1.0002458263
1.0001419714
1.0000761124
1.0000377194
1.0000172020
1.0000071846
1.0000027333
1.0000009415
1.0000002916
1.0000000805
1.0000000196
1.0000000042
1.0000000008
1.0000000001
1.0000000000
1.0000000000
1.0000000000
1.0000000000
1.0000000000
1.0000000000
1.0000000000
1.0000000000
1.0000000000
1.0000000000
1.0000000000
1.4998500029
1.4997312411
1.4995987823
1.4993171311
1.4988590167
1.4981966576
1.4973121674
1.4962050079
1.4948944697
1.4934176191
1.4918241330
1.4901699087
1.4885116181
1.4869026976
1.4853909452
1.4840177989
1.4828182909
1.4818215257
1.4810513821
1.4805266236
1.4802606515
1.4823969141
1.0032486967
1.0041473096
1.0039908071
1.0036915792
1.0032764654
1.0027828982
1.0022546539
1.0017360286
1.0012653836
1.0008696475
1.0005613035
1.0003389100
1.0001906861
1.0000995817
1.0000480692
1.0000213539
1.0000086882
1.0000032204
1.0000010810
1.0000003264
1.0000000879
1.0000000209
1.0000000043
1.0000000008
1.0000000001
1.0000000000
1.0000000000
1.0000000000
1.0000000000
1.0000000000
1.0000000000
1.0000000000
1.0000000000
1.0000000000
1.0000000000
1.4996551828
1.4994225845
1.4991945214
1.4987247031
1.4979934274
1.4969866265
1.4957065573
1.4941774406
1.4924444520
1.4905679071
1.4886151790
1.4866528728
1.4847415536
1.4829329474
1.4812692793
1.4797843802
1.4785051484
1.4774532017
1.4766463668
1.4760991375
1.4758224439
1.4779834479
1.0058466009
1.0072340657
1.0069960104
1.0065359708
1.0058868127
1.0050971752
1.0042280660
1.0033465456
1.0025168931
1.0017910573
1.0012010094
1.0007559009
1.0004448624
1.0002438939
1.0001240869
1.0000583536
1.0000252553
1.0000100121
1.0000036168
1.0000011835
1.0000003484
1.0000000915
1.0000000213
1.0000000043
1.0000000008
1.0000000001
1.0000000000
1.0000000000
1.0000000000
1.0000000000
1.0000000000
1.0000000000
1.0000000000
1.0000000000
1.0000000000
1.4992765515
1.4988593933
1.4984994084
1.4977763896
1.4966910063
1.4952571022
1.4935090166
1.4915031149
1.4893127859
1.4870198527
1.4847052543
1.4824414421
1.4802884756
1.4782930240
1.4764895584
1.4749031098
1.4735519620
1.4724502388
1.4716100172
1.4710420175
1.4707552558
1.4729141530
1.0098849199
1.0118706955
1.0115360861
1.0108820835
1.0099426161
1.0087723937
1.0074463731
1.0060551922
1.0046955607
1.0034565517
1.0024049326
1.0015751001
1.0009674705
1.0005553199
1.0002968149
1.0001471942
1.0000674639
1.0000284573
1.0000109966
1.0000038727
1.0000012357
1.0000003548
1.0000000910
1.0000000206
1.0000000041
1.0000000007
1.0000000001
1.0000000000
1.0000000000
1.0000000000
1.0000000000
1.0000000000
1.0000000000
1.0000000000
1.0000000000
1.4986036816
1.4979137287
1.4973899910
1.4963588275
1.4948554094
1.4929361044
1.4906782156
1.4881753517
1.4855286785
1.4828372842
1.4801897415
1.4776584752
1.4752982826
1.4731475205
1.4712310798
1.4695644788
1.4681574218
1.4670170367
1.4661504289
1.4655654839
1.4652702466
1.4673917949
1.0156691587
1.0182835498
1.0178532684
1.0170016805
1.0157546129
1.0141613943
1.0122992942
1.0102740965
1.0082137140
1.0062530623
1.0045116874
1.0030719094
1.0019663103
1.0011791725
1.0006603366
1.0003441934
1.0001664131
1.0000743518
1.0000305736
1.0000115178
1.0000039550
1.0000012307
1.0000003447
1.0000000862
1.0000000191
1.0000000037
1.0000000006
1.0000000001
1.0000000000
1.0000000000
1.0000000000
1.0000000000
1.0000000000
1.0000000000
1.0000000000
1.4975021448
1.4964422116
1.4957355907
1.4943651570
1.4924118531
1.4899856037
1.4872139538
1.4842298551
1.4811598006
1.4781149452
1.4751854765
1.4724383948
1.4699191937
1.4676553876
1.4656610690
1.4639419842
1.4624996176
1.4613348461
1.4604508123
1.4598537732
1.4595520485
1.4615973353
1.0232781719
1.0264288803
1.0259268215
1.0249188381
1.0234112594
1.0214321970
1.0190414742
1.0163392082
1.0134684799
1.0106059146
1.0079360603
1.0056158680
1.0037430699
1.0023418112
1.0013711128
1.0007491078
1.0003807698
1.0001794776
1.0000781697
1.0000313334
1.0000115072
1.0000038526
1.0000011691
1.0000003194
1.0000000780
1.0000000168
1.0000000032
1.0000000005
1.0000000001
1.0000000000
1.0000000000
1.0000000000
1.0000000000
1.0000000000
1.0000000000
1.4958289469
1.4943055657
1.4934158547
1.4917087651
1.4893156743
1.4864042707
1.4831543747
1.4797374624
1.4763021122
1.4729669947
1.4698192596
1.4669166078
1.4642925270
1.4619621529
1.4599281851
1.4581866516
1.4567312840
1.4555574701
1.4546654391
1.4540611820
1.4537548300
1.4556844077
1.0324453050
1.0359142077
1.0353866733
1.0343088838
1.0326581984
1.0304273305
1.0276370028
1.0243519355
1.0206969142
1.0168631622
1.0130917661
1.0096315432
1.0066841603
1.0043598914
1.0026651412
1.0015229723
1.0008115301
1.0004021376
1.0001847504
1.0000784206
1.0000306343
1.0000109656
1.0000035788
1.0000010589
1.0000002822
1.0000000672
1.0000000142
1.0000000026
1.0000000004
1.0000000001
1.0000000000
1.0000000000
1.0000000000
1.0000000000
1.0000000000
1.4934538052
1.4913904976
1.4903382732
1.4883334303
1.4855541447
1.4822218882
1.4785650786
1.4747904313
1.4710655802
1.4675139064
1.4642170846
1.4612216503
1.4585478729
1.4561978908
1.4541628466
1.4524291899
1.4509832636
1.4498155818
1.4489244509
1.4483171040
1.4480074035
1.4497822476
1.0425628766
1.0460603206
1.0455655957
1.0445301377
1.0428984436
1.0406225164
1.0376712402
1.0340477510
1.0298168480
1.0251337019
1.0202530878
1.0155009842
1.0112070386
1.0076219436
1.0048614458
1.0029014434
1.0016171376
1.0008399348
1.0004055626
1.0001815212
1.0000750577
1.0000285642
1.0000099617
1.0000031680
1.0000009137
1.0000002374
1.0000000551
1.0000000113
1.0000000020
1.0000000003
1.0000000000
1.0000000000
1.0000000000
1.0000000000
1.0000000000
1.4902796761
1.4876268175
1.4864503709
1.4842174911
1.4811421842
1.4774884256
1.4735244717
1.4694869652
1.4655601196
1.4618712201
1.4584963651
1.4554710031
1.4528022395
1.4504792075
1.4484814533
1.4467858337
1.4453714154
1.4442242451
1.4433416532
1.4427338754
1.4424210327
1.4440020428
1.0528471246
1.0560997287
1.0556933659
1.0548070585
1.0533538485
1.0512512688
1.0484205273
1.0447956446
1.0403521389
1.0351533114
1.0293945854
1.0234153697
1.0176508806
1.0125255020
1.0083372899
1.0051936655
1.0030231616
1.0016419247
1.0008306257
1.0003905268
1.0001701738
1.0000685071
1.0000253838
1.0000086200
1.0000026700
1.0000007502
1.0000001899
1.0000000430
1.0000000086
1.0000000015
1.0000000002
1.0000000000
1.0000000000
1.0000000000
1.0000000000
1.4862568475
1.4829957427
1.4817445990
1.4793732700
1.4761162713
1.4722641008
1.4681124702
1.4639209325
1.4598880017
1.4561454742
1.4527655173
1.4497739824
1.4471656542
1.4449168603
1.4429953469
1.4413680611
1.4400066388
1.4388929331
1.4380243370
1.4374163158
1.4370987446
1.4384464873
1.0625755475
1.0653951474
1.0651206216
1.0644624196
1.0633042486
1.0615424903
1.0590698833
1.0557679829
1.0515240450
1.0462787263
1.0400961327
1.0332285979
1.0261282721
1.0193636174
1.0134611375
1.0087537830
1.0053175647
1.0030148066
1.0015938011
1.0007845357
1.0003588420
1.0001521165
1.0000595736
1.0000214754
1.0000070965
1.0000021394
1.0000005852
1.0000001443
1.0000000318
1.0000000062
1.0000000011
1.0000000002
1.0000000000
1.0000000000
1.0000000000
1.4813870917
1.4775281769
1.4762557140
1.4738430105
1.4705290249
1.4666133837
1.4624051414
1.4581783700
1.4541430585
1.4504363675
1.4471287961
1.4442386053
1.4417492640
1.4396243272
1.4378192313
1.4362904507
1.4350019572
1.4339317896
1.4330787639
1.4324665340
1.4321396752
1.4332163107
1.0712558008
1.0735553402
1.0734454292
1.0730644003
1.0722638860
1.0709316645
1.0689561733
1.0661983389
1.0624881629
1.0576560896
1.0516039872
1.0444067537
1.0364014416
1.0281861505
1.0204832490
1.0139153647
1.0088215718
1.0052159333
1.0028759930
1.0014780231
1.0007071071
1.0003143258
1.0001294946
1.0000492886
1.0000172711
1.0000055486
1.0000016266
1.0000004328
1.0000001039
1.0000000223
1.0000000042
1.0000000007
1.0000000001
1.0000000000
1.0000000000
1.4757176529
1.4712946661
1.4700521139
1.4676924342
1.4644451570
1.4606031330
1.4564747956
1.4523394123
1.4484143189
1.4448417769
1.4416920964
1.4389773771
1.4366702858
1.4347212473
1.4330726981
1.4316701817
1.4304701289
1.4294476289
1.4286048515
1.4279775561
1.4276319767
1.4284065766
1.0786528001
1.0804181430
1.0805047528
1.0804349744
1.0800177065
1.0791386342
1.0777010601
1.0755770396
1.0725829902
1.0684857358
1.0630504205
1.0561429609
1.0478731699
1.0387030036
1.0294146025
1.0208939247
1.0138310462
1.0085266091
1.0048974386
1.0026218501
1.0013079511
1.0006073966
1.0002620847
1.0001048099
1.0000387297
1.0000131773
1.0000041114
1.0000011709
1.0000003028
1.0000000706
1.0000000148
1.0000000027
1.0000000004
1.0000000001
1.0000000000
1.4693304043
1.4643934151
1.4632265008
1.4610057390
1.4579411217
1.4543061065
1.4503960781
1.4464857128
1.4427937197
1.4394648648
1.4365686044
1.4341106854
1.4320525003
1.4303306674
1.4288742417
1.4276181646
1.4265124452
1.4255309857
1.4246819249
1.4240180008
1.4236366383
1.4240936731
1.0847041230
1.0859550994
1.0862818276
1.0865620233
1.0865436611
1.0861105960
1.0851912849
1.0836903569
1.0814480721
1.0782229329
1.0737060751
1.0675923252
1.0597281335
1.0503001925
1.0399514798
1.0296844912
1.0205337678
1.0132025006
1.0078945331
1.0043954653
1.0022806132
1.0011027049
1.0004963463
1.0002075975
1.0000804832
1.0000288349
1.0000095136
1.0000028792
1.0000007956
1.0000001997
1.0000000452
1.0000000092
1.0000000017
1.0000000003
1.0000000001
1.4623302774
1.4569398450
1.4558880874
1.4538822142
1.4511065147
1.4478062110
1.4442533454
1.4407080420
1.4373822494
1.4344174544
1.4318784527
1.4297621443
1.4280171095
1.4265656872
1.4253243653
1.4242195192
1.4231975192
1.4222339709
1.4213460191
1.4206087251
1.4201632388
1.4203119869
1.0894142024
1.0901798393
1.0908138098
1.0915025816
1.0919104831
1.0919168837
1.0914785197
1.0905421034
1.0889940192
1.0866275949
1.0831274269
1.0780955926
1.0711613120
1.0621868784
1.0515032447
1.0400031289
1.0289265384
1.0194074972
1.0120803865
1.0069878802
1.0037632575
1.0018889590
1.0008837178
1.0003849253
1.0001558169
1.0000584712
1.0000202795
1.0000064787
1.0000018990
1.0000005084
1.0000001237
1.0000000272
1.0000000054
1.0000000011
1.0000000003
1.4548357272
1.4490592657
1.4481570706
1.4464337521
1.4440448840
1.4412017851
1.4381447464
1.4351091278
1.4322896304
1.4298151090
1.4277384017
1.4260427956
1.4246620563
1.4235050269
1.4224787945
1.4215057918
1.4205335578
1.4195431729
1.4185633796
1.4176961649
1.4171421013
1.4170229838
1.0927872056
1.0930989147
1.0941428694
1.0953281207
1.0962132509
1.0966717842
1.0966882284
1.0962524454
1.0953051918
1.0936988733
1.0911621111
1.0872850161
1.0815714636
1.0736052606
1.0633299929
1.0513163986
1.0387705657
1.0271505304
1.0175955724
1.0105683702
1.0058982642
1.0030658094
1.0014858105
1.0006713198
1.0002824622
1.0001104625
1.0000400501
1.0000134234
1.0000041449
1.0000011746
1.0000003041
1.0000000716
1.0000000153
1.0000000034
1.0000000011
1.4469750218
1.4408853563
1.4401637171
1.4387849430
1.4368747976
1.4346069643
1.4321825621
1.4298012595
1.4276275548
1.4257649262
1.4242440206
1.4230285054
1.4220362763
1.4211661673
1.4203224235
1.4194311001
1.4184473800
1.4173615066
1.4162143684
1.4151365464
1.4144064926
1.4140903025
1.0947940251
1.0946873380
1.0962968892
1.0981041149
1.0995488815
1.1005017713
1.1009729071
1.1009919422
1.1005537439
1.0995789461
1.0978692103
1.0950636532
1.0906361394
1.0839927744
1.0747216639
1.0629539916
1.0496115653
1.0362489818
1.0244607486
1.0152508257
1.0088108783
1.0047325425
1.0023689350
1.0011061768
1.0004817216
1.0001953905
1.0000736673
1.0000257538
1.0000083239
1.0000024791
1.0000006778
1.0000001694
1.0000000387
1.0000000094
1.0000000034
1.4388860496
1.4325610455
1.4320487554
1.4310725441
1.4297279539
1.4281478356
1.4264865319
1.4248957536
1.4234944841
1.4223455983
1.4214460196
1.4207346241
1.4201153195
1.4194844371
1.4187536145
1.4178623351
1.4167802299
1.4155086372
1.4140968886
1.4126994512
1.4116919793
1.4112700602
1.0953368711
1.0948510111
1.0972668093
1.0998760581
1.1020105096
1.1035441892
1.1045076255
1.1049650604
1.1049627542
1.1044914092
1.1034391319
1.1015316427
1.0982877451
1.0930457522
1.0851387851
1.0742568963
1.0608643151
1.0463383472
1.0325472867
1.0210598578
1.0125844529
1.0069729525
1.0035956293
1.0017293187
1.0007763146
1.0003251012
1.0001268183
1.0000459887
1.0000154644
1.0000048081
1.0000013777
1.0000003626
1.0000000879
1.0000000228
1.0000000089
1.4307168672
1.4242387226
1.4239623989
1.4234423062
1.4227430536
1.4219528110
1.4211703512
1.4204854689
1.4199546511
1.4195843039
1.4193274556
1.4190965491
1.4187881372
1.4183079210
1.4175877545
1.4165906274
1.4153055928
1.4137432668
1.4119510173
1.4100909428
1.4086501051
1.4082176584
1.0941561032
1.0933264028
1.0969441368
1.1006371093
1.1036842552
1.1059637829
1.1075143222
1.1084310979
1.1088138776
1.1087270112
1.1081523759
1.1069232334
1.1046533124
1.1007047767
1.0942767645
1.0847022853
1.0719304841
1.0569302104
1.0415790074
1.0279086065
1.0172375011
1.0098388631
1.0052143212
1.0025749489
1.0011870602
1.0005110185
1.0002052531
1.0000767986
1.0000267118
1.0000086149
1.0000025691
1.0000007064
1.0000001798
1.0000000498
1.0000000206
1.4226267891
1.4160799080
1.4160626007
1.4160445897
1.4160579105
1.4161408328
1.4163261584
1.4166265166
1.4170188732
1.4174394267
1.4177916450
1.4179657746
1.4178630279
1.4174135008
1.4165822869
1.4153636004
1.4137668438
1.4118046125
1.4095027114
1.4069947466
1.4048703539
1.4045091180
1.0905929411
1.0894378326
1.0949852612
1.1002791241
1.1046635084
1.1079971354
1.1103123230
1.1117475523
1.1124766258
1.1126539045
1.1123659390
1.1115666918
1.1099947957
1.1071010690
1.1020590981
1.0939669201
1.0823028196
1.0674960013
1.0511642453
1.0355933181
1.0227062430
1.0133342671
1.0072482126
1.0036646306
1.0017287286
1.0007618538
1.0003136133
1.0001204559
1.0000430934
1.0000143285
1.0000044171
1.0000012595
1.0000003342
1.0000000973
1.0000000422
1.4147838677
1.4082507550
1.4085094226
1.4090266348
1.4097990143
1.4108082150
1.4120094784
1.4133231300
1.4146320456
1.4157936589
1.4166631750
1.4171195173
1.4170847706
1.4165293088
1.4154625318
1.4139140549
1.4119102679
1.4094527645
1.4065144118
1.4031290623
1.3999033361
1.3996710882
1.0829980198
1.0815041873
1.0906005607
1.0986286540
1.1051856282
1.1100919211
1.1134221346
1.1154337391
1.1164387373
1.1167224599
1.1164968588
1.1158471931
1.1146520750
1.1124893808
1.1085874363
1.1019297707
1.0916282056
1.0775503716
1.0608502951
1.0438074476
1.0288364998
1.0174024976
1.0096848062
1.0050002104
1.0024056637
1.0010810725
1.0004540633
1.0001781484
1.0000652010
1.0000222188
1.0000070349
1.0000020654
1.0000005665
1.0000001719
1.0000000774
1.4073588495
1.4009143922
1.4014569824
1.4025238709
1.4040723130
1.4060196091
1.4082318537
1.4105240662
1.4126753295
1.4144626309
1.4157009646
1.4162730179
1.4161386347
1.4153226937
1.4138886707
1.4119075121
1.4094252008
1.4064271281
1.4028001338
1.3983511161
1.3933712927
1.3933046396
1.0668817840
1.0649792090
1.0824236085
1.0959489026
1.1061553542
1.1132632917
1.1177534744
1.1202386105
1.1213008248
1.1214202373
1.1209574626
1.1201315999
1.1189596531
1.1171587206
1.1140583801
1.1086222999
1.0997168823
1.0867088868
1.0701843275
1.0521728014
1.0353873777
1.0219186691
1.0124674931
1.0065576643
1.0032078960
1.0014646169
1.0006250323
1.0002493265
1.0000928735
1.0000322539
1.0000104238
1.0000031297
1.0000008804
1.0000002757
1.0000001277
1.4005187892
1.3942239716
1.3950471729
1.3966551993
1.3989614074
1.4018110821
1.4049712949
1.4081427280
1.4109965863
1.4132326593
1.4146347761
1.4150992370
1.4146292877
1.4133043574
1.4112403902
1.4085569530
1.4053549373
1.4016960698
1.3975608906
1.3927324211
1.3866708656
1.3868062118
1.0276660175
1.0251306986
1.0695193221
1.0949682767
1.1105205433
1.1197716895
1.1248267647
1.1271156948
1.1276394662
1.1270987832
1.1259832211
1.1246118035
1.1231068390
1.1213051068
1.1186477411
1.1141363726
1.1064983351
1.0947029993
1.0787612211
1.0602791147
1.0420463639
1.0266888671
1.0154903032
1.0082826082
1.0041083249
1.0018993399
1.0008203912
1.0003312839
1.0001249918
1.0000440037
1.0000144309
1.0000044024
1.0000012609
1.0000004036
1.0000001908
1.3944186971
1.3883150480
1.3894038715
1.3915212728
1.3945329328
1.3982066689
1.4022050073
1.4061114313
1.4094909924
1.4119710164
1.4133057050
1.4133936959
1.4122462112
1.4099230335
1.4064543927
1.4017569925
1.3955247274
1.3870329840
1.3747228335
1.3552067917
1.3206453377
1.2524212981
1.1663065620
1.1716773143
1.1051727669
1.1092593977
1.1204351546
1.1281541483
1.1333746839
1.1363147231
1.1373379298
1.1369133862
1.1355048202
1.1335155147
1.1312782595
1.1290480693
1.1269537448
1.1248933925
1.1223977689
1.1185302614
1.1119582322
1.1013669241
1.0862566170
1.0677301385
1.0484595932
1.0314613992
1.0185995919
1.0100895861
1.0050621120
1.0023627932
1.0010294348
1.0004191866
1.0001595016
1.0000566504
1.0000187526
1.0000057783
1.0000016736
1.0000005430
1.0000002599
1.3891915912
1.3832976233
1.3846267977
1.3872024096
1.3908416065
1.3952348449
1.3999433163
1.4044418511
1.4082037326
1.4108016716
1.4119777583
1.4116487057
1.4098523727
1.4066641607
1.4021077340
1.3960731981
1.3882304650
1.3778971410
1.3638000044
1.3435957489
1.3128522051
1.2636912684
1.1632758904
1.1690991695
1.1349466588
1.1317872879
1.1359448959
1.1401955887
1.1432193793
1.1446247661
1.1444975178
1.1431407995
1.1409230181
1.1382022386
1.1353000406
1.1324883488
1.1299428676
1.1276406228
1.1252141600
1.1218163547
1.1161201374
1.1066354237
1.0924581759
1.0741969556
1.0542794639
1.0359550917
1.0216071218
1.0118678006
1.0060095779
1.0028249382
1.0012379195
1.0005066625
1.0001937175
1.0000691308
1.0000229946
1.0000071208
1.0000020736
1.0000006769
1.0000003258
1.3849373109
1.3792474614
1.3807824248
1.3837482423
1.3879165571
1.3929069359
1.3981908131
1.4031515218
1.4071913542
1.4098487560
1.4108700160
1.4102020437
1.4079214856
1.4041386715
1.3989053719
1.3921423853
1.3835781897
1.3726673855
1.3584603960
1.3393724431
1.3127608530
1.2746070911
1.2062866031
1.1909488755
1.1634457536
1.1535429909
1.1511267705
1.1511063428
1.1514033087
1.1510727115
1.1498120679
1.1476630940
1.1448325649
1.1415904920
1.1382200896
1.1349904369
1.1321056923
1.1296026845
1.1271997043
1.1241375395
1.1191260167
1.1105791298
1.0972987903
1.0794670928
1.0592177256
1.0398993248
1.0243135933
1.0134934471
1.0068826410
1.0032516249
1.0014299568
1.0005867984
1.0002248175
1.0000803640
1.0000267687
1.0000082995
1.0000024192
1.0000007905
1.0000003808
1.3817176415
1.3762036663
1.3779013690
1.3811743348
1.3857556966
1.3912063484
1.3969258050
1.4022275544
1.4064641847
1.4091559706
1.4100616068
1.4091596769
1.4065642818
1.4024205461
1.3968114232
1.3896927082
1.3808482025
1.3698368889
1.3559162440
1.3379168591
1.3140292546
1.2816566485
1.2306377621
1.2069164632
1.1822422369
1.1689630139
1.1625658688
1.1594999119
1.1576762219
1.1559335073
1.1537387942
1.1509466995
1.1476350153
1.1439972320
1.1402788552
1.1367395143
1.1335985040
1.1309329409
1.1285244563
1.1256856186
1.1211699934
1.1133456399
1.1008170636
1.0834381770
1.0630669072
1.0430634176
1.0265318538
1.0148440320
1.0076126800
1.0036086876
1.0015900785
1.0006531437
1.0002503082
1.0000894545
1.0000297762
1.0000092217
1.0000026838
1.0000008749
1.0000004206
1.3795630498
1.3741777135
1.3759880457
1.3794728085
1.3843371674
1.3901001814
1.3961114300
1.4016378179
1.4060012158
1.4087139290
1.4095474348
1.4085052769
1.4057294548
1.4013905558
1.3955941192
1.3883201204
1.3793872247
1.3684145279
1.3547701348
1.3374929191
1.3151719458
1.2858876127
1.2439549339
1.2171112304
1.1934617584
1.1785019309
1.1699071322
1.1649980716
1.1618184389
1.1591422030
1.1563192876
1.1530927355
1.1494570219
1.1455539379
1.1416026275
1.1378550644
1.1345389761
1.1317566486
1.1293312478
1.1266252414
1.1224281411
1.1150895990
1.1030953389
1.0860802855
1.0656940977
1.0452708440
1.0281052330
1.0158120849
1.0081384947
1.0038659046
1.0017050044
1.0007004360
1.0002683009
1.0000957898
1.0000318394
1.0000098423
1.0000028575
1.0000009286
1.0000004452
1.3784847676
1.3731672787
1.3750351803
1.3786279438
1.3836360152
1.3895566991
1.3957140578
1.4013518188
1.4057773647
1.4085003514
1.4092999888
1.4081933282
1.4053369663
1.4009145483
1.3950429216
1.3877136359
1.3787611148
1.3678304163
1.3543360065
1.3374026451
1.3157841932
1.2878530970
1.2498296484
1.2220044006
1.1986759806
1.1830140633
1.1734503354
1.1676873209
1.1638592086
1.1607272745
1.1575940794
1.1541518445
1.1503549526
1.1463196022
1.1422517168
1.1383993136
1.1349940642
1.1321504631
1.1297122485
1.1270673559
1.1230251576
1.1159297144