<VTKFile type="UnstructuredGrid" version="0.1">
	<UnstructuredGrid>
		<Piece NumberOfPoints="13548" NumberOfCells="3387">
			<CellData>
				<DataArray type="Int32" Name="ghost" NumberOfComponents="1" Format="ascii">
1
1
1
1
1
1
1
1
1
1
1
1
1
1
1
1
1
1
1
1
1
1
1
1
1
1
1
1
1
1
1
1
1
1
1
1
1
1
1
1
1
1
1
1
1
1
1
1
1
1
1
1
1
1
1
1
1
1
0
0
0
0
0
0
0
0
0
0
0
0
0
0
0
0
0
0
0
0
1
1
0
0
0
0
0
0
0
0
0
0
0
0
0
0
0
0
0
0
0
0
0
0
0
0
0
0
0
0
0
0
0
0
0
1
1
0
0
0
0
0
0
0
0
0
0
0
0
0
0
0
0
0
0
0
0
1
1
0
0
0
0
0
0
0
0
0
0
0
0
0
0
0
0
0
0
0
0
0
0
0
0
0
0
0
0
0
0
0
0
0
1
1
0
0
0
0
0
0
0
0
0
0
0
0
0
0
0
0
0
0
0
0
1
1
0
0
0
0
0
0
0
0
0
0
0
0
0
0
0
0
0
0
0
0
0
0
0
0
0
0
0
0
0
0
0
0
0
1
1
0
0
0
0
0
0
0
0
0
0
0
0
0
0
0
0
0
0
0
0
1
1
0
0
0
0
0
0
0
0
0
0
0
0
0
0
0
0
0
0
0
0
0
0
0
0
0
0
0
0
0
0
0
0
0
1
1
0
0
0
0
0
0
0
0
0
0
0
0
0
0
0
0
0
0
0
0
1
1
0
0
0
0
0
0
0
0
0
0
0
0
0
0
0
0
0
0
0
0
0
0
0
0
0
0
0
0
0
0
0
0
0
1
1
0
0
0
0
0
0
0
0
0
0
0
0
0
0
0
0
0
0
0
0
1
1
0
0
0
0
0
0
0
0
0
0
0
0
0
0
0
0
0
0
0
0
0
0
0
0
0
0
0
0
0
0
0
0
0
1
1
0
0
0
0
0
0
0
0
0
0
0
0
0
0
0
0
0
0
0
0
1
1
0
0
0
0
0
0
0
0
0
0
0
0
0
0
0
0
0
0
0
0
0
0
0
0
0
0
0
0
0
0
0
0
0
1
1
0
0
0
0
0
0
0
0
0
0
0
0
0
0
0
0
0
0
0
0
1
1
0
0
0
0
0
0
0
0
0
0
0
0
0
0
0
0
0
0
0
0
0
0
0
0
0
0
0
0
0
0
0
0
0
1
1
0
0
0
0
0
0
0
0
0
0
0
0
0
0
0
0
0
0
0
0
1
1
0
0
0
0
0
0
0
0
0
0
0
0
0
0
0
0
0
0
0
0
0
0
0
0
0
0
0
0
0
0
0
0
0
1
1
0
0
0
0
0
0
0
0
0
0
0
0
0
0
0
0
0
0
0
0
1
1
0
0
0
0
0
0
0
0
0
0
0
0
0
0
0
0
0
0
0
0
0
0
0
0
0
0
0
0
0
0
0
0
0
1
1
0
0
0
0
0
0
0
0
0
0
0
0
0
0
0
0
0
0
0
0
1
1
0
0
0
0
0
0
0
0
0
0
0
0
0
0
0
0
0
0
0
0
0
0
0
0
0
0
0
0
0
0
0
0
0
1
1
0
0
0
0
0
0
0
0
0
0
0
0
0
0
0
0
0
0
0
0
1
1
0
0
0
0
0
0
0
0
0
0
0
0
0
0
0
0
0
0
0
0
0
0
0
0
0
0
0
0
0
0
0
0
0
1
1
0
0
0
0
0
0
0
0
0
0
0
0
0
0
0
0
0
0
0
0
1
1
0
0
0
0
0
0
0
0
0
0
0
0
0
0
0
0
0
0
0
0
0
0
0
0
0
0
0
0
0
0
0
0
0
1
1
0
0
0
0
0
0
0
0
0
0
0
0
0
0
0
0
0
0
0
0
1
1
0
0
0
0
0
0
0
0
0
0
0
0
0
0
0
0
0
0
0
0
0
0
0
0
0
0
0
0
0
0
0
0
0
1
1
0
0
0
0
0
0
0
0
0
0
0
0
0
0
0
0
0
0
0
0
1
1
0
0
0
0
0
0
0
0
0
0
0
0
0
0
0
0
0
0
0
0
0
0
0
0
0
0
0
0
0
0
0
0
0
1
1
0
0
0
0
0
0
0
0
0
0
0
0
0
0
0
0
0
0
0
0
1
1
0
0
0
0
0
0
0
0
0
0
0
0
0
0
0
0
0
0
0
0
0
0
0
0
0
0
0
0
0
0
0
0
0
1
1
0
0
0
0
0
0
0
0
0
0
0
0
0
0
0
0
0
0
0
0
1
1
0
0
0
0
0
0
0
0
0
0
0
0
0
0
0
0
0
0
0
0
0
0
0
0
0
0
0
0
0
0
0
0
0
1
1
0
0
0
0
0
0
0
0
0
0
0
0
0
0
0
0
0
0
0
0
1
1
0
0
0
0
0
0
0
0
0
0
0
0
0
0
0
0
0
0
0
0
0
0
0
0
0
0
0
0
0
0
0
0
0
1
1
0
0
0
0
0
0
0
0
0
0
0
0
0
0
0
0
0
0
0
0
1
1
0
0
0
0
0
0
0
0
0
0
0
0
0
0
0
0
0
0
0
0
0
0
0
0
0
0
0
0
0
0
0
0
0
1
1
0
0
0
0
0
0
0
0
0
0
0
0
0
0
0
0
0
0
0
0
1
1
0
0
0
0
0
0
0
0
0
0
0
0
0
0
0
0
0
0
0
0
0
0
0
0
0
0
0
0
0
0
0
0
0
1
1
0
0
0
0
0
0
0
0
0
0
0
0
0
0
0
0
0
0
0
0
1
1
0
0
0
0
0
0
0
0
0
0
0
0
0
0
0
0
0
0
0
0
0
0
0
0
0
0
0
0
0
0
0
0
0
1
1
0
0
0
0
0
0
0
0
0
0
0
0
0
0
0
0
0
0
0
0
1
1
0
0
0
0
0
0
0
0
0
0
0
0
0
0
0
0
0
0
0
0
0
0
0
0
0
0
0
0
0
0
0
0
0
1
1
0
0
0
0
0
0
0
0
0
0
0
0
0
0
0
0
0
0
0
0
1
1
0
0
0
0
0
0
0
0
0
0
0
0
0
0
0
0
0
0
0
0
0
0
0
0
0
0
0
0
0
0
0
0
0
1
1
0
0
0
0
0
0
0
0
0
0
0
0
0
0
0
0
0
0
0
0
1
1
0
0
0
0
0
0
0
0
0
0
0
0
0
0
0
0
0
0
0
0
0
0
0
0
0
0
0
0
0
0
0
0
0
1
1
0
0
0
0
0
0
0
0
0
0
0
0
0
0
0
0
0
0
0
0
0
1
1
0
0
0
0
0
0
0
0
0
0
0
0
0
0
0
0
0
0
0
0
0
0
0
0
0
0
0
0
0
0
0
0
0
0
1
1
0
0
0
0
0
0
0
0
0
0
0
0
0
0
0
0
0
0
0
0
0
0
0
0
0
0
0
0
0
0
0
0
0
0
0
0
0
0
0
0
0
0
0
0
0
0
0
0
0
0
0
0
0
0
0
0
0
1
1
0
0
0
0
0
0
0
0
0
0
0
0
0
0
0
0
0
0
0
0
0
0
0
0
0
0
0
0
0
0
0
0
0
0
0
0
0
0
0
0
0
0
0
0
0
0
0
0
0
0
0
0
0
0
0
0
0
1
1
0
0
0
0
0
0
0
0
0
0
0
0
0
0
0
0
0
0
0
0
0
0
0
0
0
0
0
0
0
0
0
0
0
0
0
0
0
0
0
0
0
0
0
0
0
0
0
0
0
0
0
0
0
0
0
0
0
1
1
0
0
0
0
0
0
0
0
0
0
0
0
0
0
0
0
0
0
0
0
0
0
0
0
0
0
0
0
0
0
0
0
0
0
0
0
0
0
0
0
0
0
0
0
0
0
0
0
0
0
0
0
0
0
0
0
0
1
1
0
0
0
0
0
0
0
0
0
0
0
0
0
0
0
0
0
0
0
0
0
0
0
0
0
0
0
0
0
0
0
0
0
0
0
0
0
0
0
0
0
0
0
0
0
0
0
0
0
0
0
0
0
0
0
0
0
1
1
0
0
0
0
0
0
0
0
0
0
0
0
0
0
0
0
0
0
0
0
0
0
0
0
0
0
0
0
0
0
0
0
0
0
0
0
0
0
0
0
0
0
0
0
0
0
0
0
0
0
0
0
0
0
0
0
0
1
1
0
0
0
0
0
0
0
0
0
0
0
0
0
0
0
0
0
0
0
0
0
0
0
0
0
0
0
0
0
0
0
0
0
0
0
0
0
0
0
0
0
0
0
0
0
0
0
0
0
0
0
0
0
0
0
0
0
1
1
0
0
0
0
0
0
0
0
0
0
0
0
0
0
0
0
0
0
0
0
0
0
0
0
0
0
0
0
0
0
0
0
0
0
0
0
0
0
0
0
0
0
0
0
0
0
0
0
0
0
0
0
0
0
0
0
0
1
1
0
0
0
0
0
0
0
0
0
0
0
0
0
0
0
0
0
0
0
0
0
0
0
0
0
0
0
0
0
0
0
0
0
0
0
0
0
0
0
0
0
0
0
0
0
0
0
0
0
0
0
0
0
0
0
0
0
1
1
0
0
0
0
0
0
0
0
0
0
0
0
0
0
0
0
0
0
0
0
0
0
0
0
0
0
0
0
0
0
0
0
0
0
0
0
0
0
0
0
0
0
0
0
0
0
0
0
0
0
0
0
0
0
0
0
0
1
1
0
0
0
0
0
0
0
0
0
0
0
0
0
0
0
0
0
0
0
0
0
1
1
0
0
0
0
0
0
0
0
0
0
0
0
0
0
0
0
0
0
0
0
0
0
0
0
0
0
0
0
0
0
0
0
0
0
1
1
0
0
0
0
0
0
0
0
0
0
0
0
0
0
0
0
0
0
0
0
1
1
0
0
0
0
0
0
0
0
0
0
0
0
0
0
0
0
0
0
0
0
0
0
0
0
0
0
0
0
0
0
0
0
0
1
1
0
0
0
0
0
0
0
0
0
0
0
0
0
0
0
0
0
0
0
0
1
1
0
0
0
0
0
0
0
0
0
0
0
0
0
0
0
0
0
0
0
0
0
0
0
0
0
0
0
0
0
0
0
0
0
1
1
0
0
0
0
0
0
0
0
0
0
0
0
0
0
0
0
0
0
0
0
1
1
0
0
0
0
0
0
0
0
0
0
0
0
0
0
0
0
0
0
0
0
0
0
0
0
0
0
0
0
0
0
0
0
0
1
1
0
0
0
0
0
0
0
0
0
0
0
0
0
0
0
0
0
0
0
0
1
1
0
0
0
0
0
0
0
0
0
0
0
0
0
0
0
0
0
0
0
0
0
0
0
0
0
0
0
0
0
0
0
0
0
1
1
0
0
0
0
0
0
0
0
0
0
0
0
0
0
0
0
0
0
0
0
1
1
0
0
0
0
0
0
0
0
0
0
0
0
0
0
0
0
0
0
0
0
0
0
0
0
0
0
0
0
0
0
0
0
0
1
1
0
0
0
0
0
0
0
0
0
0
0
0
0
0
0
0
0
0
0
0
1
1
0
0
0
0
0
0
0
0
0
0
0
0
0
0
0
0
0
0
0
0
0
0
0
0
0
0
0
0
0
0
0
0
0
1
1
0
0
0
0
0
0
0
0
0
0
0
0
0
0
0
0
0
0
0
0
1
1
0
0
0
0
0
0
0
0
0
0
0
0
0
0
0
0
0
0
0
0
0
0
0
0
0
0
0
0
0
0
0
0
0
1
1
0
0
0
0
0
0
0
0
0
0
0
0
0
0
0
0
0
0
0
0
1
1
0
0
0
0
0
0
0
0
0
0
0
0
0
0
0
0
0
0
0
0
0
0
0
0
0
0
0
0
0
0
0
0
0
1
1
0
0
0
0
0
0
0
0
0
0
0
0
0
0
0
0
0
0
0
0
1
1
0
0
0
0
0
0
0
0
0
0
0
0
0
0
0
0
0
0
0
0
0
0
0
0
0
0
0
0
0
0
0
0
0
1
1
0
0
0
0
0
0
0
0
0
0
0
0
0
0
0
0
0
0
0
0
1
1
0
0
0
0
0
0
0
0
0
0
0
0
0
0
0
0
0
0
0
0
0
0
0
0
0
0
0
0
0
0
0
0
0
1
1
0
0
0
0
0
0
0
0
0
0
0
0
0
0
0
0
0
0
0
0
1
1
0
0
0
0
0
0
0
0
0
0
0
0
0
0
0
0
0
0
0
0
0
0
0
0
0
0
0
0
0
0
0
0
0
1
1
0
0
0
0
0
0
0
0
0
0
0
0
0
0
0
0
0
0
0
0
1
1
0
0
0
0
0
0
0
0
0
0
0
0
0
0
0
0
0
0
0
0
0
0
0
0
0
0
0
0
0
0
0
0
0
1
1
0
0
0
0
0
0
0
0
0
0
0
0
0
0
0
0
0
0
0
0
1
1
0
0
0
0
0
0
0
0
0
0
0
0
0
0
0
0
0
0
0
0
0
0
0
0
0
0
0
0
0
0
0
0
0
1
1
0
0
0
0
0
0
0
0
0
0
0
0
0
0
0
0
0
0
0
0
1
1
0
0
0
0
0
0
0
0
0
0
0
0
0
0
0
0
0
0
0
0
0
0
0
0
0
0
0
0
0
0
0
0
0
1
1
0
0
0
0
0
0
0
0
0
0
0
0
0
0
0
0
0
0
0
0
1
1
0
0
0
0
0
0
0
0
0
0
0
0
0
0
0
0
0
0
0
0
0
0
0
0
0
0
0
0
0
0
0
0
0
1
1
0
0
0
0
0
0
0
0
0
0
0
0
0
0
0
0
0
0
0
0
1
1
0
0
0
0
0
0
0
0
0
0
0
0
0
0
0
0
0
0
0
0
0
0
0
0
0
0
0
0
0
0
0
0
0
1
1
0
0
0
0
0
0
0
0
0
0
0
0
0
0
0
0
0
0
0
0
1
1
0
0
0
0
0
0
0
0
0
0
0
0
0
0
0
0
0
0
0
0
0
0
0
0
0
0
0
0
0
0
0
0
0
1
1
0
0
0
0
0
0
0
0
0
0
0
0
0
0
0
0
0
0
0
0
1
1
0
0
0
0
0
0
0
0
0
0
0
0
0
0
0
0
0
0
0
0
0
0
0
0
0
0
0
0
0
0
0
0
0
1
1
0
0
0
0
0
0
0
0
0
0
0
0
0
0
0
0
0
0
0
0
1
1
0
0
0
0
0
0
0
0
0
0
0
0
0
0
0
0
0
0
0
0
0
0
0
0
0
0
0
0
0
0
0
0
0
1
1
0
0
0
0
0
0
0
0
0
0
0
0
0
0
0
0
0
0
0
0
1
1
0
0
0
0
0
0
0
0
0
0
0
0
0
0
0
0
0
0
0
0
0
0
0
0
0
0
0
0
0
0
0
0
0
1
1
0
0
0
0
0
0
0
0
0
0
0
0
0
0
0
0
0
0
0
0
1
1
0
0
0
0
0
0
0
0
0
0
0
0
0
0
0
0
0
0
0
0
0
0
0
0
0
0
0
0
0
0
0
0
0
1
1
1
1
1
1
1
1
1
1
1
1
1
1
1
1
1
1
1
1
1
1
1
1
1
1
1
1
1
1
1
1
1
1
1
1
1
1
1
1
1
1
1
1
1
1
1
1
1
1
1
1
1
1
1
1
1
1
				</DataArray>
				<DataArray type="Float64" Name="h" NumberOfComponents="1" Format="ascii">
1.3089368459
1.3091774492
1.3089709302
1.3085417203
1.3078592742
1.3068831242
1.3055691479
1.3038772435
1.3017803704
1.2992731491
1.2963784518
1.2931512088
1.2896783951
1.2860748910
1.2824760630
1.2790285278
1.2758801237
1.2731700142
1.2710203754
1.2695296066
1.2687665150
1.2687665150
1.1417313222
1.1411195619
1.1412852449
1.1415987746
1.1420299861
1.1425428417
1.1431014724
1.1436746212
1.1442365297
1.1447669226
1.1452511154
1.1456786559
1.1460428583
1.1463414778
1.1465766736
1.1467564843
1.1468980010
1.1470308173
1.1472028461
1.1474883271
1.1479962679
1.1488795263
1.1503414142
1.1526343653
1.1560445213
1.1608531213
1.1672685742
1.1753310673
1.1848090683
1.1951308855
1.2053968682
1.2144982897
1.2213236277
1.2249826489
1.2249826489
1.3091774492
1.3093546439
1.3091188125
1.3086290732
1.3078515619
1.3067419143
1.3052525899
1.3033415864
1.3009822465
1.2981723076
1.2949405553
1.2913503191
1.2874990273
1.2835135047
1.2795419270
1.2757440323
1.2722804458
1.2693021537
1.2669416365
1.2653054972
1.2644682502
1.2687665150
1.1411195619
1.1404904580
1.1406613567
1.1409851743
1.1414314337
1.1419636253
1.1425452839
1.1431444967
1.1437348785
1.1442956339
1.1448117527
1.1452727563
1.1456723727
1.1460094274
1.1462881238
1.1465199678
1.1467275578
1.1469488062
1.1472436195
1.1477027171
1.1484565248
1.1496838031
1.1516160976
1.1545316265
1.1587315203
1.1644895726
1.1719724095
1.1811383053
1.1916432576
1.2028025825
1.2136448279
1.2230615708
1.2300102373
1.2336970096
1.2249826489
1.3090419310
1.3091998157
1.3089654162
1.3084790892
1.3077080125
1.3066092149
1.3051366683
1.3032496912
1.3009223887
1.2981523783
1.2949672685
1.2914281835
1.2876295912
1.2836950711
1.2797698081
1.2760112875
1.2725789187
1.2696235650
1.2672784800
1.2656515288
1.2648184848
1.2690590581
1.1408536939
1.1402239920
1.1404018687
1.1407385534
1.1412018415
1.1417534076
1.1423552286
1.1429742153
1.1435831681
1.1441607734
1.1446917543
1.1451656008
1.1455762703
1.1459231500
1.1462114377
1.1464542030
1.1466763297
1.1469188542
1.1472456480
1.1477519583
1.1485725031
1.1498884406
1.1519289561
1.1549610844
1.1592614605
1.1650635638
1.1724815528
1.1814227871
1.1915169071
1.2021001097
1.2122761347
1.2210489886
1.2274926125
1.2309032343
1.2222715835
1.3087931676
1.3089110425
1.3086793896
1.3081995939
1.3074408067
1.3063627020
1.3049221367
1.3030809760
1.3008148447
1.2981212392
1.2950256601
1.2915851620
1.2878886610
1.2840535587
1.2802192412
1.2765387018
1.2731687700
1.2702598015
1.2679462930
1.2663383575
1.2655140891
1.2696407198
1.1403077466
1.1396775713
1.1398695399
1.1402321827
1.1407297868
1.1413203626
1.1419627618
1.1426215405
1.1432678680
1.1438793844
1.1444402630
1.1449399100
1.1453727194
1.1457391799
1.1460464564
1.1463107189
1.1465613739
1.1468456087
1.1472350262
1.1478335463
1.1487837990
1.1502706835
1.1525172757
1.1557669586
1.1602473650
1.1661145760
1.1733861620
1.1818806115
1.1911872644
1.2006874494
1.2096242067
1.2172045291
1.2227131552
1.2256119538
1.2171746429
1.3084739162
1.3085287317
1.3083008906
1.3078301416
1.3070883496
1.3060388391
1.3046424807
1.3028647468
1.3006835323
1.2980964214
1.2951263145
1.2918249425
1.2882737460
1.2845815913
1.2808796080
1.2773141044
1.2740377134
1.2711994271
1.2689348954
1.2673569516
1.2665466997
1.2705060445
1.1394519888
1.1388230829
1.1390365003
1.1394385836
1.1399882265
1.1406378707
1.1413416639
1.1420606359
1.1427635078
1.1434263311
1.1440324180
1.1445710016
1.1450370788
1.1454327387
1.1457680422
1.1460637395
1.1463558986
1.1467006838
1.1471807930
1.1479122047
1.1490477759
1.1507755130
1.1533061717
1.1568450433
1.1615470256
1.1674606223
1.1744783061
1.1823140738
1.1905228556
1.1985595388
1.2058516139
1.2118631453
1.2161450658
1.2183722304
1.2102819045
1.3081433567
1.3081094826
1.3078861047
1.3074259673
1.3067041594
1.3056883671
1.3043443129
1.3026419389
1.3005621527
1.2981030924
1.2952851029
1.2921540978
1.2887829650
1.2852704342
1.2817374113
1.2783214412
1.2751690673
1.2724264850
1.2702296893
1.2686940299
1.2679038172
1.2716468816
1.1382399103
1.1376167710
1.1378593268
1.1383148474
1.1389347908
1.1396640495
1.1404504828
1.1412504423
1.1420293948
1.1427612496
1.1434281170
1.1440189250
1.1445293911
1.1449636508
1.1453355303
1.1456717546
1.1460170391
1.1464390463
1.1470343303
1.1479332105
1.1492992607
1.1513203525
1.1541858041
1.1580467761
1.1629644927
1.1688606077
1.1754944917
1.1824856604
1.1893801788
1.1957362145
1.2011883931
1.2054712052
1.2084111521
1.2099055126
1.2023436130
1.3078718272
1.3077216994
1.3075028548
1.3070536145
1.3063525854
1.3053722470
1.3040837332
1.3024621267
1.3004920801
1.2981729997
1.2955232521
1.2925832092
1.2894170178
1.2861124992
1.2827789580
1.2795433093
1.2765439026
1.2739221362
1.2718127869
1.2703327842
1.2695693050
1.2730528948
1.1366065855
1.1359978318
1.1362776038
1.1368011166
1.1375101401
1.1383399522
1.1392305552
1.1401325160
1.1410072723
1.1418260423
1.1425693747
1.1432257282
1.1437916152
1.1442736123
1.1446901122
1.1450751013
1.1454837228
1.1459972510
1.1467280770
1.1478217647
1.1494509434
1.1517973172
1.1550171458
1.1591914201
1.1642725928
1.1700505767
1.1761654004
1.1821743437
1.1876527400
1.1922872948
1.1959199017
1.1985325265
1.2001941631
1.2009955603
1.1941406663
1.3077349724
1.3074405125
1.3072255685
1.3067860157
1.3061041060
1.3051573256
1.3039225560
1.3023805310
1.3005203604
1.2983436204
1.2958677084
1.2931283877
1.2901816729
1.2871045048
1.2839938416
1.2809644194
1.2781442100
1.2756673693
1.2736652247
1.2722546778
1.2715249499
1.2747131091
1.1344672034
1.1338870315
1.1342124878
1.1348190310
1.1356362344
1.1365876286
1.1376038525
1.1386286724
1.1396187866
1.1405422020
1.1413775527
1.1421126555
1.1427448734
1.1432835863
1.1437524933
1.1441940072
1.1446752344
1.1452926834
1.1461756510
1.1474843237
1.1493965371
1.1520793928
1.1556432695
1.1600855022
1.1652437175
1.1707871629
1.1762689261
1.1812297180
1.1853139689
1.1883511560
1.1903700472
1.1915505262
1.1921412831
1.1923700215
1.1863614290
1.3078072741
1.3073418112
1.3071293896
1.3066967713
1.3060298789
1.3051112794
1.3039237877
1.3024541757
1.3006966782
1.2986560370
1.2963499595
1.2938109931
1.2910882454
1.2882484850
1.2853761962
1.2825727960
1.2799537899
1.2776434075
1.2757668329
1.2744388492
1.2737495927
1.2766149450
1.1317175565
1.1311869046
1.1315669024
1.1322718841
1.1332164177
1.1343101274
1.1354729137
1.1366408746
1.1377653615
1.1388107123
1.1397533340
1.1405802638
1.1412897995
1.1418944972
1.1424240745
1.1429304302
1.1434939106
1.1442273544
1.1452770776
1.1468157740
1.1490207669
1.1520346800
1.1559099535
1.1605521064
1.1656889771
1.1708946973
1.1756792809
1.1796144322
1.1824443429
1.1841397031
1.1848792197
1.1849768660
1.1847864071
1.1846066449
1.1795184752
1.3081563415
1.3074966883
1.3072847361
1.3068549299
1.3061968456
1.3052981375
1.3041476504
1.3027384837
1.3010705879
1.2991528475
1.2970046458
1.2946569355
1.2921535242
1.2895522225
1.2869254580
1.2843606530
1.2819590234
1.2798321986
1.2780963458
1.2768618564
1.2762186405
1.2787436495
1.1282367646
1.1277836814
1.1282274661
1.1290465122
1.1301372419
1.1313932754
1.1327226399
1.1340531208
1.1353302633
1.1365143709
1.1375793923
1.1385115337
1.1393102039
1.1399915884
1.1405921716
1.1411743389
1.1418327256
1.1426970855
1.1439299672
1.1457131825
1.1482165757
1.1515483086
1.1556936652
1.1604654752
1.1654976478
1.1703043829
1.1743984042
1.1774209799
1.1792302101
1.1799199618
1.1797719867
1.1791693436
1.1785020098
1.1780823296
1.1739160427
1.3088387374
1.3079669950
1.3077529714
1.3073208788
1.3066639216
1.3057748228
1.3046484981
1.3032845741
1.3016891876
1.2998762198
1.2978680097
1.2956955426
1.2933990774
1.2910289819
1.2886464715
1.2863247665
1.2841493658
1.2822168721
1.2806316933
1.2794977417
1.2789039620
1.2810820162
1.1238927985
1.1235514230
1.1240686163
1.1250173433
1.1262724258
1.1277096224
1.1292243683
1.1307358173
1.1321834364
1.1335232422
1.1347265940
1.1357789441
1.1366811428
1.1374536157
1.1381404793
1.1388156215
1.1395888438
1.1406069504
1.1420471584
1.1440960631
1.1469085687
1.1505495765
1.1549322836
1.1597834690
1.1646667906
1.1690742007
1.1725595924
1.1748562640
1.1759322256
1.1759743481
1.1753194060
1.1743648099
1.1734857503
1.1729692089
1.1696634970
1.3098967202
1.3088015398
1.3085826691
1.3081427259
1.3074785187
1.3065878031
1.3054715568
1.3041360303
1.3025938589
1.3008645671
1.2989745104
1.2969561579
1.2948479080
1.2926943033
1.2905464745
1.2884636538
1.2865146665
1.2847790957
1.2833472694
1.2823151211
1.2817708135
1.2836070216
1.1185525787
1.1183599938
1.1189606996
1.1200546098
1.1214912495
1.1231271845
1.1248451934
1.1265559145
1.1281926692
1.1297070194
1.1310676824
1.1322595589
1.1332854551
1.1341708628
1.1349685858
1.1357651121
1.1366861693
1.1378953485
1.1395823066
1.1419334418
1.1450813667
1.1490408981
1.1536527224
1.1585699261
1.1633124705
1.1673830628
1.1704018430
1.1721991139
1.1728348851
1.1725546801
1.1717098366
1.1706746180
1.1697803229
1.1692696879
1.1667203892
1.3113565831
1.3100337324
1.3098072736
1.3093539795
1.3086742222
1.3077707191
1.3066504291
1.3053261995
1.3038172840
1.3021492380
1.3003531899
1.2984642460
1.2965204125
1.2945619575
1.2926311908
1.2907739072
1.2890417763
1.2874959095
1.2862108650
1.2852740564
1.2847745826
1.2862862457
1.1120969874
1.1120875198
1.1127826138
1.1140371718
1.1156716619
1.1175231053
1.1194625284
1.1213927032
1.1232408900
1.1249539983
1.1264980010
1.1278574751
1.1290378227
1.1300706248
1.1310186204
1.1319820816
1.1331032846
1.1345619103
1.1365571611
1.1392697259
1.1428029214
1.1471166628
1.1519821749
1.1569938359
1.1616523194
1.1654947053
1.1682179522
1.1697408938
1.1701914821
1.1698435285
1.1690354648
1.1680991913
1.1673119538
1.1668686595
1.1649505713
1.3132287554
1.3116808991
1.3114443733
1.3109727309
1.3102698235
1.3093431900
1.3082055890
1.3068762887
1.3053810709
1.3037516310
1.3020242887
1.3002375836
1.2984302839
1.2966397454
1.2949007283
1.2932463708
1.2917111241
1.2903367138
1.2891809415
1.2883233771
1.2878579876
1.2890745883
1.1044386356
1.1046359052
1.1054375989
1.1068685263
1.1087166537
1.1108007797
1.1129824411
1.1151577542
1.1172479609
1.1191947963
1.1209610288
1.1225308941
1.1239129456
1.1251459207
1.1263038226
1.1275018662
1.1288992312
1.1306904089
1.1330804590
1.1362382539
1.1402310671
1.1449605822
1.1501334594
1.1552999903
1.1599606550
1.1637002779
1.1662920391
1.1677282850
1.1681822901
1.1679348394
1.1672976514
1.1665556098
1.1659342410
1.1655857815
1.1641709959
1.3155079609
1.3137437779
1.3134951001
1.3130008617
1.3122682382
1.3113093493
1.3101424423
1.3087928660
1.3072926295
1.3056794073
1.3039948019
1.3022812192
1.3005789964
1.2989236838
1.2973436750
1.2958603595
1.2944912236
1.2932581211
1.2922017058
1.2913956824
1.2909457853
1.2919083414
1.0955392185
1.0959471924
1.0968703432
1.0984946995
1.1005732070
1.1029103585
1.1053621664
1.1078196763
1.1101976370
1.1124311875
1.1144785180
1.1163227862
1.1179758047
1.1194843134
1.1209347846
1.1224583334
1.1242309582
1.1264599447
1.1293516363
1.1330563668
1.1375987981
1.1428200363
1.1483676506
1.1537604547
1.1585120082
1.1622603704
1.1648485422
1.1663271662
1.1668981592
1.1668378283
1.1664279824
1.1659107049
1.1654681688
1.1652184318
1.1641887714
1.3181735931
1.3162063861
1.3159438911
1.3154236002
1.3146557645
1.3136567216
1.3124497505
1.3110657730
1.3095425269
1.3079232664
1.3062546815
1.3045831515
1.3029510605
1.3013929882
1.2999320062
1.2985787023
1.2973340372
1.2961997179
1.2951991173
1.2944031539
1.2939400269
1.2946997325
1.0854203544
1.0860161480
1.0870808447
1.0889192813
1.0912487911
1.0938672380
1.0966309190
1.0994271674
1.1021623309
1.1047616870
1.1071757468
1.1093845277
1.1114023571
1.1132843539
1.1151303965
1.1170881776
1.1193499703
1.1221331812
1.1256401998
1.1299958433
1.1351761033
1.1409601645
1.1469421927
1.1526200369
1.1575292129
1.1613621465
1.1640240564
1.1656120154
1.1663466442
1.1664959190
1.1663147459
1.1660103687
1.1657314231
1.1655703407
1.1648240465
1.3211904944
1.3190364301
1.3187588063
1.3182096587
1.3174019680
1.3163557973
1.3150988533
1.3136669654
1.3121029314
1.3104549908
1.3087744990
1.3071116548
1.3055110914
1.3040070117
1.3026180614
1.3013449540
1.3001726057
1.2990821896
1.2980792949
1.2972355692
1.2967170231
1.2973330299
1.0741579429
1.0748899284
1.0761262140
1.0782068272
1.0808166004
1.0837596251
1.0868998160
1.0901206496
1.0933152333
1.0963925817
1.0992898024
1.1019798969
1.1044779517
1.1068474196
1.1092024234
1.1117078891
1.1145717212
1.1180186342
1.1222418821
1.1273343857
1.1332187093
1.1396122686
1.1460620055
1.1520539168
1.1571517546
1.1611018056
1.1638650784
1.1655771966
1.1664726904
1.1668117134
1.1668276938
1.1667013770
1.1665566944
1.1664676218
1.1659216702
1.3245084220
1.3221846695
1.3218908316
1.3213104253
1.3204587205
1.3193588923
1.3180423376
1.3165489910
1.3149259031
1.3132255586
1.3115033907
1.3098130735
1.3082014851
1.3067028546
1.3053321642
1.3040811206
1.3029189747
1.3018054583
1.3007265439
1.2997572049
1.2991220250
1.2996583425
1.0618547252
1.0626485102
1.0641053436
1.0664706035
1.0694066776
1.0727433933
1.0763598203
1.0801316103
1.0839287473
1.0876330955
1.0911595077
1.0944684405
1.0975735105
1.1005467181
1.1035178779
1.1066705009
1.1102281594
1.1144208262
1.1194285283
1.1253075571
1.1319244249
1.1389368685
1.1458514938
1.1521506604
1.1574311260
1.1614921045
1.1643455277
1.1661606451
1.1671840193
1.1676701822
1.1678365758
1.1678445519
1.1678003282
1.1677648842
1.1673544025
1.3280608158
1.3255838161
1.3252727759
1.3246588588
1.3237591055
1.3225990867
1.3212130401
1.3196440934
1.3179426368
1.3161645539
1.3143686549
1.3126116147
1.3109424045
1.3093955369
1.3079829753
1.3066881880
1.3054648926
1.3042494830
1.3030037904
1.3018052682
1.3009633944
1.3014850545
1.0485946769
1.0493670250
1.0511287336
1.0538468982
1.0571851317
1.0610262876
1.0652691617
1.0697700842
1.0743585808
1.0788733391
1.0831957183
1.0872679140
1.0911009853
1.0947773768
1.0984458124
1.1023114021
1.1066149779
1.1115913604
1.1174052048
1.1240737823
1.1314073942
1.1390080281
1.1463492672
1.1529170824
1.1583447272
1.1624830697
1.1653910657
1.1672682421
1.1683724733
1.1689549778
1.1692217244
1.1693200958
1.1693437397
1.1693445748
1.1690206955
1.3317638939
1.3291479868
1.3288187628
1.3281690650
1.3272171281
1.3259901284
1.3245242130
1.3228647101
1.3210643609
1.3191815271
1.3172776161
1.3154117338
1.3136346772
1.3119813702
1.3104612654
1.3090502001
1.3076860882
1.3062785974
1.3047563680
1.3031904816
1.3020050159
1.3025737320
1.0343854018
1.0350626644
1.0372791744
1.0404630936
1.0443308331
1.0488524878
1.0539415279
1.0594107836
1.0650230158
1.0705541574
1.0758416001
1.0808067032
1.0854607136
1.0899019397
1.0943041302
1.0988993366
1.1039492296
1.1096950220
1.1162859925
1.1237002952
1.1316939248
1.1398181876
1.1475206664
1.1542967972
1.1598183534
1.1639859500
1.1669019434
1.1687933538
1.1699288125
1.1705579753
1.1708786488
1.1710281341
1.1710911382
1.1711132676
1.1708403888
1.3355153096
1.3327720094
1.3324235933
1.3317357742
1.3307273738
1.3294263424
1.3278697586
1.3261041118
1.3241834568
1.3221676583
1.3201198770
1.3181009917
1.3161632299
1.3143418829
1.3126441731
1.3110385956
1.3094463687
1.3077450313
1.3058141414
1.3036935430
1.3019459603
1.3026157669
1.0190874262
1.0196230073
1.0225692629
1.0264135840
1.0310326181
1.0365159006
1.0427642584
1.0495053473
1.0564026460
1.0631527692
1.0695462807
1.0754895076
1.0810036472
1.0862132881
1.0913265759
1.0966099447
1.1023509924
1.1088002621
1.1160931542
1.1241701243
1.1327358798
1.1412962586
1.1492788007
1.1561924636
1.1617479418
1.1658928451
1.1687691680
1.1706286892
1.1717500130
1.1723823041
1.1727174720
1.1728854254
1.1729644350
1.1729956820
1.1727486971
1.3391937654
1.3363318752
1.3359632297
1.3352348878
1.3341656474
1.3327833941
1.3311251484
1.3292375068
1.3271747788
1.3249973258
1.3227691735
1.3205522419
1.3183996703
1.3163468670
1.3143987553
1.3125162046
1.3106018316
1.3084929722
1.3059944870
1.3030601271
1.3003805896
1.3011940364
1.0022823454
1.0026688488
1.0068785357
1.0117545244
1.0175379026
1.0244368175
1.0322742295
1.0406388553
1.0490713681
1.0571908120
1.0647565412
1.0716799431
1.0780110871
1.0839161189
1.0896489723
1.0955183885
1.1018428936
1.1088852438
1.1167686601
1.1253976345
1.1344286179
1.1433264401
1.1515029525
1.1584827323
1.1640141970
1.1680883366
1.1708827345
1.1726710657
1.1737408289
1.1743412001
1.1746596753
1.1748206053
1.1748975418
1.1749285284
1.1746903543
1.3426616803
1.3396883208
1.3392983289
1.3385269056
1.3373922163
1.3359212398
1.3341499311
1.3321239105
1.3298966396
1.3275279209
1.3250817304
1.3226203137
1.3201972771
1.3178480203
1.3155751488
1.3133313338
1.3109975604
1.3083593674
1.3051076577
1.3010005409
1.2967231803
1.2977087557
0.9828238247
0.9830994256
0.9897804843
0.9965470420
1.0043238304
1.0133599956
1.0233210042
1.0336375200
1.0437532766
1.0532548337
1.0619158773
1.0696899761
1.0766824519
1.0831177451
1.0893053283
1.0956013826
1.1023575884
1.1098496310
1.1181888163
1.1272444748
1.1366269228
1.1457631152
1.1540517672
1.1610332999
1.1664912420
1.1704556062
1.1731352530
1.1748227693
1.1758132506
1.1763559937
1.1766350378
1.1767704395
1.1768322221
1.1768561772
1.1766157136
1.3457718216
1.3426942367
1.3422815747
1.3414640724
1.3402585944
1.3386902532
1.3367927335
1.3346092931
1.3321910213
1.3295955769
1.3268854146
1.3241219672
1.3213588823
1.3186323892
1.3159452139
1.3132455399
1.3103952095
1.3071197016
1.3029437184
1.2972216198
1.2900938220
1.2912659524
0.9568889245
0.9571452853
0.9701632617
0.9812281664
0.9926432778
1.0048052595
1.0173547211
1.0297159146
1.0413750876
1.0519955424
1.0614401558
1.0697500820
1.0771095329
1.0838105145
1.0902192095
1.0967365208
1.1037432171
1.1115240901
1.1201758328
1.1295315738
1.1391562472
1.1484406280
1.1567712052
1.1637029030
1.1690506400
1.1728785650
1.1754223654
1.1769905310
1.1778843680
1.1783531875
1.1785782116
1.1786761094
1.1787142307
1.1787267400
1.1784772661
1.3483799111
1.3452076587
1.3447708704
1.3439039455
1.3426215854
1.3409457054
1.3389058555
1.3365404460
1.3338949082
1.3310204567
1.3279725522
1.3248050780
1.3215641076
1.3182797730
1.3149523105
1.3115349317
1.3079063210
1.3038130290
1.2987341420
1.2915574928
1.2801875849
1.2815544324
0.9089639618
0.9093745897
0.9464456985
0.9684769042
0.9860341964
1.0019376089
1.0168016080
1.0305519951
1.0429900414
1.0539954007
1.0635813463
1.0718936112
1.0791895140
1.0858128309
1.0921682395
1.0986845916
1.1057581047
1.1136727873
1.1225045667
1.1320476040
1.1418212708
1.1511810069
1.1595009780
1.1663482886
1.1715648782
1.1752439375
1.1776436026
1.1790853940
1.1798755086
1.1802631105
1.1804270909
1.1804814383
1.1804914806
1.1804902183
1.1802281811
1.3503627462
1.3471097145
1.3466481874
1.3457301632
1.3443672320
1.3425765394
1.3403810627
1.3378106403
1.3348992405
1.3316823412
1.3281931525
1.3244521348
1.3204526676
1.3161382484
1.3113592965
1.3057991943
1.2988327443
1.2892254049
1.2744479889
1.2489305522
1.1991361491
1.0874060641
0.9230611951
0.9647404928
0.9807942256
0.9772764172
0.9854722651
0.9934501911
1.0033565496
1.0147357059
1.0266951813
1.0384404039
1.0494147952
1.0593101454
1.0680341625
1.0756701385
1.0824380651
1.0886596943
1.0947287620
1.1010691281
1.1080710621
1.1160047995
1.1249188626
1.1345665331
1.1444226009
1.1538088060
1.1620871444
1.1688345241
1.1739155410
1.1774475502
1.1797071019
1.1810261966
1.1817148078
1.1820218581
1.1821243492
1.1821341904
1.1821152172
1.1820996260
1.1818237325
1.3516334220
1.3483190232
1.3478349332
1.3468700286
1.3454325264
1.3435344257
1.3411916726
1.3384250934
1.3352570004
1.3317077259
1.3277908418
1.3235006903
1.3187957779
1.3135739638
1.3076273843
1.3005717113
1.2917248293
1.2798739270
1.2628103689
1.2363011412
1.1916537290
1.1106400693
0.9206409043
0.9629062546
0.9735496983
0.9785683363
0.9888323121
0.9992485520
1.0103871928
1.0220409361
1.0337002175
1.0448520230
1.0551181955
1.0642968116
1.0723572058
1.0794104156
1.0856875491
1.0915135727
1.0972837439
1.1034226992
1.1103177362
1.1182279142
1.1271780518
1.1368857705
1.1467870961
1.1561746888
1.1644001238
1.1710485249
1.1760032896
1.1794015592
1.1815347467
1.1827431686
1.1833397043
1.1835730321
1.1836186840
1.1835870115
1.1835407890
1.1835116854
1.1832222305
1.3521420741
1.3487913046
1.3482901772
1.3472896212
1.3457948522
1.3438133660
1.3413551171
1.3384335680
1.3350620363
1.3312500459
1.3269986374
1.3222877410
1.3170601859
1.3111992677
1.3044881673
1.2965503207
1.2867542381
1.2740394147
1.2565987839
1.2312478381
1.1921138066
1.1298008872
1.0056721753
1.0020621605
0.9961593627
0.9947833882
1.0002172021
1.0085615852
1.0186266578
1.0294926580
1.0404118749
1.0508246540
1.0603694968
1.0688708050
1.0763133619
1.0828271618
1.0886505935
1.0941088305
1.0995967607
1.1055384927
1.1123180535
1.1201847295
1.1291434060
1.1388820584
1.1488047103
1.1581802070
1.1663516858
1.1729109118
1.1777562818
1.1810405356
1.1830666570
1.1841813366
1.1846996132
1.1848699301
1.1848666993
1.1847991265
1.1847292424
1.1846883766
1.1843867347
1.3518693137
1.3485116206
1.3480014100
1.3469814372
1.3454545615
1.3434248041
1.3408976140
1.3378811380
1.3343825457
1.3304045113
1.3259410131
1.3209651613
1.3154144911
1.3091714123
1.3020272372
1.2936319592
1.2834184094
1.2704672642
1.2532793336
1.2293657873
1.1944873193
1.1430402758
1.0550787678
1.0309234258
1.0155636581
1.0092388097
1.0109287917
1.0172036510
1.0260370137
1.0360210090
1.0461915972
1.0559165879
1.0648223965
1.0727399044
1.0796614254
1.0857173938
1.0911554624
1.0963001838
1.1015447392
1.1073117398
1.1139819136
1.1217965228
1.1307448434
1.1404919650
1.1504173914
1.1597718648
1.1678922059
1.1743752500
1.1791306472
1.1823227143
1.1842629241
1.1853025649
1.1857581613
1.1858779071
1.1858353495
1.1857388366
1.1856498539
1.1855994877
1.1852876917
1.3508228162
1.3474898377
1.3469795162
1.3459584254
1.3444277451
1.3423890516
1.3398446818
1.3367992136
1.3332558540
1.3292131147
1.3246610938
1.3195698016
1.3138755521
1.3074636132
1.3001355327
1.2915651852
1.2812350720
1.2683246172
1.2515336843
1.2287937006
1.1967965789
1.1517289734
1.0831638366
1.0502814411
1.0296383974
1.0199225530
1.0190414841
1.0237453953
1.0315988198
1.0408880504
1.0504900562
1.0597086177
1.0681519635
1.0756497566
1.0821968766
1.0879239116
1.0930807690
1.0979941102
1.1030556452
1.1086867120
1.1152656215
1.1230281161
1.1319529201
1.1416897477
1.1516017222
1.1609276255
1.1690002916
1.1754201776
1.1801046059
1.1832256787
1.1851005102
1.1860833830
1.1864917123
1.1865734144
1.1865013477
1.1863831832
1.1862799522
1.1862225125
1.1859028848
1.3490384084
1.3457611047
1.3452594940
1.3442552675
1.3427485544
1.3407394126
1.3382282606
1.3352174906
1.3317079243
1.3276956238
1.3231684763
1.3180948460
1.3124106032
1.3060029845
1.2986796648
1.2901279667
1.2798570742
1.2670973183
1.2506472947
1.2286396526
1.1982003861
1.1562592024
1.0964537042
1.0605096342
1.0375817332
1.0261822299
1.0239759485
1.0278038804
1.0350768298
1.0439434967
1.0532014409
1.0621187018
1.0702908533
1.0775443578
1.0838736052
1.0894091093
1.0943993142
1.0991723778
1.1041187120
1.1096585586
1.1161686819
1.1238818609