<VTKFile type="UnstructuredGrid" version="0.1">
	<UnstructuredGrid>
		<Piece NumberOfPoints="13548" NumberOfCells="3387">
			<CellData>
				<DataArray type="Int32" Name="ghost" NumberOfComponents="1" Format="ascii">
1
1
1
1
1
1
1
1
1
1
1
1
1
1
1
1
1
1
1
1
1
1
1
1
1
1
1
1
1
1
1
1
1
1
1
1
1
1
1
1
1
1
1
1
1
1
1
1
1
1
1
1
1
1
1
1
1
1
0
0
0
0
0
0
0
0
0
0
0
0
0
0
0
0
0
0
0
0
1
1
0
0
0
0
0
0
0
0
0
0
0
0
0
0
0
0
0
0
0
0
0
0
0
0
0
0
0
0
0
0
0
0
0
1
1
0
0
0
0
0
0
0
0
0
0
0
0
0
0
0
0
0
0
0
0
1
1
0
0
0
0
0
0
0
0
0
0
0
0
0
0
0
0
0
0
0
0
0
0
0
0
0
0
0
0
0
0
0
0
0
1
1
0
0
0
0
0
0
0
0
0
0
0
0
0
0
0
0
0
0
0
0
1
1
0
0
0
0
0
0
0
0
0
0
0
0
0
0
0
0
0
0
0
0
0
0
0
0
0
0
0
0
0
0
0
0
0
1
1
0
0
0
0
0
0
0
0
0
0
0
0
0
0
0
0
0
0
0
0
1
1
0
0
0
0
0
0
0
0
0
0
0
0
0
0
0
0
0
0
0
0
0
0
0
0
0
0
0
0
0
0
0
0
0
1
1
0
0
0
0
0
0
0
0
0
0
0
0
0
0
0
0
0
0
0
0
1
1
0
0
0
0
0
0
0
0
0
0
0
0
0
0
0
0
0
0
0
0
0
0
0
0
0
0
0
0
0
0
0
0
0
1
1
0
0
0
0
0
0
0
0
0
0
0
0
0
0
0
0
0
0
0
0
1
1
0
0
0
0
0
0
0
0
0
0
0
0
0
0
0
0
0
0
0
0
0
0
0
0
0
0
0
0
0
0
0
0
0
1
1
0
0
0
0
0
0
0
0
0
0
0
0
0
0
0
0
0
0
0
0
1
1
0
0
0
0
0
0
0
0
0
0
0
0
0
0
0
0
0
0
0
0
0
0
0
0
0
0
0
0
0
0
0
0
0
1
1
0
0
0
0
0
0
0
0
0
0
0
0
0
0
0
0
0
0
0
0
1
1
0
0
0
0
0
0
0
0
0
0
0
0
0
0
0
0
0
0
0
0
0
0
0
0
0
0
0
0
0
0
0
0
0
1
1
0
0
0
0
0
0
0
0
0
0
0
0
0
0
0
0
0
0
0
0
1
1
0
0
0
0
0
0
0
0
0
0
0
0
0
0
0
0
0
0
0
0
0
0
0
0
0
0
0
0
0
0
0
0
0
1
1
0
0
0
0
0
0
0
0
0
0
0
0
0
0
0
0
0
0
0
0
1
1
0
0
0
0
0
0
0
0
0
0
0
0
0
0
0
0
0
0
0
0
0
0
0
0
0
0
0
0
0
0
0
0
0
1
1
0
0
0
0
0
0
0
0
0
0
0
0
0
0
0
0
0
0
0
0
1
1
0
0
0
0
0
0
0
0
0
0
0
0
0
0
0
0
0
0
0
0
0
0
0
0
0
0
0
0
0
0
0
0
0
1
1
0
0
0
0
0
0
0
0
0
0
0
0
0
0
0
0
0
0
0
0
1
1
0
0
0
0
0
0
0
0
0
0
0
0
0
0
0
0
0
0
0
0
0
0
0
0
0
0
0
0
0
0
0
0
0
1
1
0
0
0
0
0
0
0
0
0
0
0
0
0
0
0
0
0
0
0
0
1
1
0
0
0
0
0
0
0
0
0
0
0
0
0
0
0
0
0
0
0
0
0
0
0
0
0
0
0
0
0
0
0
0
0
1
1
0
0
0
0
0
0
0
0
0
0
0
0
0
0
0
0
0
0
0
0
1
1
0
0
0
0
0
0
0
0
0
0
0
0
0
0
0
0
0
0
0
0
0
0
0
0
0
0
0
0
0
0
0
0
0
1
1
0
0
0
0
0
0
0
0
0
0
0
0
0
0
0
0
0
0
0
0
1
1
0
0
0
0
0
0
0
0
0
0
0
0
0
0
0
0
0
0
0
0
0
0
0
0
0
0
0
0
0
0
0
0
0
1
1
0
0
0
0
0
0
0
0
0
0
0
0
0
0
0
0
0
0
0
0
1
1
0
0
0
0
0
0
0
0
0
0
0
0
0
0
0
0
0
0
0
0
0
0
0
0
0
0
0
0
0
0
0
0
0
1
1
0
0
0
0
0
0
0
0
0
0
0
0
0
0
0
0
0
0
0
0
1
1
0
0
0
0
0
0
0
0
0
0
0
0
0
0
0
0
0
0
0
0
0
0
0
0
0
0
0
0
0
0
0
0
0
1
1
0
0
0
0
0
0
0
0
0
0
0
0
0
0
0
0
0
0
0
0
1
1
0
0
0
0
0
0
0
0
0
0
0
0
0
0
0
0
0
0
0
0
0
0
0
0
0
0
0
0
0
0
0
0
0
1
1
0
0
0
0
0
0
0
0
0
0
0
0
0
0
0
0
0
0
0
0
1
1
0
0
0
0
0
0
0
0
0
0
0
0
0
0
0
0
0
0
0
0
0
0
0
0
0
0
0
0
0
0
0
0
0
1
1
0
0
0
0
0
0
0
0
0
0
0
0
0
0
0
0
0
0
0
0
1
1
0
0
0
0
0
0
0
0
0
0
0
0
0
0
0
0
0
0
0
0
0
0
0
0
0
0
0
0
0
0
0
0
0
1
1
0
0
0
0
0
0
0
0
0
0
0
0
0
0
0
0
0
0
0
0
1
1
0
0
0
0
0
0
0
0
0
0
0
0
0
0
0
0
0
0
0
0
0
0
0
0
0
0
0
0
0
0
0
0
0
1
1
0
0
0
0
0
0
0
0
0
0
0
0
0
0
0
0
0
0
0
0
1
1
0
0
0
0
0
0
0
0
0
0
0
0
0
0
0
0
0
0
0
0
0
0
0
0
0
0
0
0
0
0
0
0
0
1
1
0
0
0
0
0
0
0
0
0
0
0
0
0
0
0
0
0
0
0
0
1
1
0
0
0
0
0
0
0
0
0
0
0
0
0
0
0
0
0
0
0
0
0
0
0
0
0
0
0
0
0
0
0
0
0
1
1
0
0
0
0
0
0
0
0
0
0
0
0
0
0
0
0
0
0
0
0
1
1
0
0
0
0
0
0
0
0
0
0
0
0
0
0
0
0
0
0
0
0
0
0
0
0
0
0
0
0
0
0
0
0
0
1
1
0
0
0
0
0
0
0
0
0
0
0
0
0
0
0
0
0
0
0
0
0
1
1
0
0
0
0
0
0
0
0
0
0
0
0
0
0
0
0
0
0
0
0
0
0
0
0
0
0
0
0
0
0
0
0
0
0
1
1
0
0
0
0
0
0
0
0
0
0
0
0
0
0
0
0
0
0
0
0
0
0
0
0
0
0
0
0
0
0
0
0
0
0
0
0
0
0
0
0
0
0
0
0
0
0
0
0
0
0
0
0
0
0
0
0
0
1
1
0
0
0
0
0
0
0
0
0
0
0
0
0
0
0
0
0
0
0
0
0
0
0
0
0
0
0
0
0
0
0
0
0
0
0
0
0
0
0
0
0
0
0
0
0
0
0
0
0
0
0
0
0
0
0
0
0
1
1
0
0
0
0
0
0
0
0
0
0
0
0
0
0
0
0
0
0
0
0
0
0
0
0
0
0
0
0
0
0
0
0
0
0
0
0
0
0
0
0
0
0
0
0
0
0
0
0
0
0
0
0
0
0
0
0
0
1
1
0
0
0
0
0
0
0
0
0
0
0
0
0
0
0
0
0
0
0
0
0
0
0
0
0
0
0
0
0
0
0
0
0
0
0
0
0
0
0
0
0
0
0
0
0
0
0
0
0
0
0
0
0
0
0
0
0
1
1
0
0
0
0
0
0
0
0
0
0
0
0
0
0
0
0
0
0
0
0
0
0
0
0
0
0
0
0
0
0
0
0
0
0
0
0
0
0
0
0
0
0
0
0
0
0
0
0
0
0
0
0
0
0
0
0
0
1
1
0
0
0
0
0
0
0
0
0
0
0
0
0
0
0
0
0
0
0
0
0
0
0
0
0
0
0
0
0
0
0
0
0
0
0
0
0
0
0
0
0
0
0
0
0
0
0
0
0
0
0
0
0
0
0
0
0
1
1
0
0
0
0
0
0
0
0
0
0
0
0
0
0
0
0
0
0
0
0
0
0
0
0
0
0
0
0
0
0
0
0
0
0
0
0
0
0
0
0
0
0
0
0
0
0
0
0
0
0
0
0
0
0
0
0
0
1
1
0
0
0
0
0
0
0
0
0
0
0
0
0
0
0
0
0
0
0
0
0
0
0
0
0
0
0
0
0
0
0
0
0
0
0
0
0
0
0
0
0
0
0
0
0
0
0
0
0
0
0
0
0
0
0
0
0
1
1
0
0
0
0
0
0
0
0
0
0
0
0
0
0
0
0
0
0
0
0
0
0
0
0
0
0
0
0
0
0
0
0
0
0
0
0
0
0
0
0
0
0
0
0
0
0
0
0
0
0
0
0
0
0
0
0
0
1
1
0
0
0
0
0
0
0
0
0
0
0
0
0
0
0
0
0
0
0
0
0
0
0
0
0
0
0
0
0
0
0
0
0
0
0
0
0
0
0
0
0
0
0
0
0
0
0
0
0
0
0
0
0
0
0
0
0
1
1
0
0
0
0
0
0
0
0
0
0
0
0
0
0
0
0
0
0
0
0
0
1
1
0
0
0
0
0
0
0
0
0
0
0
0
0
0
0
0
0
0
0
0
0
0
0
0
0
0
0
0
0
0
0
0
0
0
1
1
0
0
0
0
0
0
0
0
0
0
0
0
0
0
0
0
0
0
0
0
1
1
0
0
0
0
0
0
0
0
0
0
0
0
0
0
0
0
0
0
0
0
0
0
0
0
0
0
0
0
0
0
0
0
0
1
1
0
0
0
0
0
0
0
0
0
0
0
0
0
0
0
0
0
0
0
0
1
1
0
0
0
0
0
0
0
0
0
0
0
0
0
0
0
0
0
0
0
0
0
0
0
0
0
0
0
0
0
0
0
0
0
1
1
0
0
0
0
0
0
0
0
0
0
0
0
0
0
0
0
0
0
0
0
1
1
0
0
0
0
0
0
0
0
0
0
0
0
0
0
0
0
0
0
0
0
0
0
0
0
0
0
0
0
0
0
0
0
0
1
1
0
0
0
0
0
0
0
0
0
0
0
0
0
0
0
0
0
0
0
0
1
1
0
0
0
0
0
0
0
0
0
0
0
0
0
0
0
0
0
0
0
0
0
0
0
0
0
0
0
0
0
0
0
0
0
1
1
0
0
0
0
0
0
0
0
0
0
0
0
0
0
0
0
0
0
0
0
1
1
0
0
0
0
0
0
0
0
0
0
0
0
0
0
0
0
0
0
0
0
0
0
0
0
0
0
0
0
0
0
0
0
0
1
1
0
0
0
0
0
0
0
0
0
0
0
0
0
0
0
0
0
0
0
0
1
1
0
0
0
0
0
0
0
0
0
0
0
0
0
0
0
0
0
0
0
0
0
0
0
0
0
0
0
0
0
0
0
0
0
1
1
0
0
0
0
0
0
0
0
0
0
0
0
0
0
0
0
0
0
0
0
1
1
0
0
0
0
0
0
0
0
0
0
0
0
0
0
0
0
0
0
0
0
0
0
0
0
0
0
0
0
0
0
0
0
0
1
1
0
0
0
0
0
0
0
0
0
0
0
0
0
0
0
0
0
0
0
0
1
1
0
0
0
0
0
0
0
0
0
0
0
0
0
0
0
0
0
0
0
0
0
0
0
0
0
0
0
0
0
0
0
0
0
1
1
0
0
0
0
0
0
0
0
0
0
0
0
0
0
0
0
0
0
0
0
1
1
0
0
0
0
0
0
0
0
0
0
0
0
0
0
0
0
0
0
0
0
0
0
0
0
0
0
0
0
0
0
0
0
0
1
1
0
0
0
0
0
0
0
0
0
0
0
0
0
0
0
0
0
0
0
0
1
1
0
0
0
0
0
0
0
0
0
0
0
0
0
0
0
0
0
0
0
0
0
0
0
0
0
0
0
0
0
0
0
0
0
1
1
0
0
0
0
0
0
0
0
0
0
0
0
0
0
0
0
0
0
0
0
1
1
0
0
0
0
0
0
0
0
0
0
0
0
0
0
0
0
0
0
0
0
0
0
0
0
0
0
0
0
0
0
0
0
0
1
1
0
0
0
0
0
0
0
0
0
0
0
0
0
0
0
0
0
0
0
0
1
1
0
0
0
0
0
0
0
0
0
0
0
0
0
0
0
0
0
0
0
0
0
0
0
0
0
0
0
0
0
0
0
0
0
1
1
0
0
0
0
0
0
0
0
0
0
0
0
0
0
0
0
0
0
0
0
1
1
0
0
0
0
0
0
0
0
0
0
0
0
0
0
0
0
0
0
0
0
0
0
0
0
0
0
0
0
0
0
0
0
0
1
1
0
0
0
0
0
0
0
0
0
0
0
0
0
0
0
0
0
0
0
0
1
1
0
0
0
0
0
0
0
0
0
0
0
0
0
0
0
0
0
0
0
0
0
0
0
0
0
0
0
0
0
0
0
0
0
1
1
0
0
0
0
0
0
0
0
0
0
0
0
0
0
0
0
0
0
0
0
1
1
0
0
0
0
0
0
0
0
0
0
0
0
0
0
0
0
0
0
0
0
0
0
0
0
0
0
0
0
0
0
0
0
0
1
1
0
0
0
0
0
0
0
0
0
0
0
0
0
0
0
0
0
0
0
0
1
1
0
0
0
0
0
0
0
0
0
0
0
0
0
0
0
0
0
0
0
0
0
0
0
0
0
0
0
0
0
0
0
0
0
1
1
0
0
0
0
0
0
0
0
0
0
0
0
0
0
0
0
0
0
0
0
1
1
0
0
0
0
0
0
0
0
0
0
0
0
0
0
0
0
0
0
0
0
0
0
0
0
0
0
0
0
0
0
0
0
0
1
1
0
0
0
0
0
0
0
0
0
0
0
0
0
0
0
0
0
0
0
0
1
1
0
0
0
0
0
0
0
0
0
0
0
0
0
0
0
0
0
0
0
0
0
0
0
0
0
0
0
0
0
0
0
0
0
1
1
0
0
0
0
0
0
0
0
0
0
0
0
0
0
0
0
0
0
0
0
1
1
0
0
0
0
0
0
0
0
0
0
0
0
0
0
0
0
0
0
0
0
0
0
0
0
0
0
0
0
0
0
0
0
0
1
1
0
0
0
0
0
0
0
0
0
0
0
0
0
0
0
0
0
0
0
0
1
1
0
0
0
0
0
0
0
0
0
0
0
0
0
0
0
0
0
0
0
0
0
0
0
0
0
0
0
0
0
0
0
0
0
1
1
0
0
0
0
0
0
0
0
0
0
0
0
0
0
0
0
0
0
0
0
1
1
0
0
0
0
0
0
0
0
0
0
0
0
0
0
0
0
0
0
0
0
0
0
0
0
0
0
0
0
0
0
0
0
0
1
1
1
1
1
1
1
1
1
1
1
1
1
1
1
1
1
1
1
1
1
1
1
1
1
1
1
1
1
1
1
1
1
1
1
1
1
1
1
1
1
1
1
1
1
1
1
1
1
1
1
1
1
1
1
1
1
1
				</DataArray>
				<DataArray type="Float64" Name="h" NumberOfComponents="1" Format="ascii">
1.0360548323
1.0370432614
1.0375459248
1.0385359304
1.0399832797
1.0418447584
1.0440656824
1.0465822084
1.0493239890
1.0522164883
1.0551835387
1.0581497148
1.0610420109
1.0637916909
1.0663358335
1.0686182978
1.0705908713
1.0722139882
1.0734568041
1.0742970950
1.0747206854
1.0747206854
1.3193891862
1.3197732756
1.3193420410
1.3185006671
1.3172892031
1.3157651138
1.3139992316
1.3120695961
1.3100559151
1.3080333938
1.3060673400
1.3042102476
1.3025007207
1.3009645844
1.2996174235
1.2984682092
1.2975236815
1.2967916019
1.2962836834
1.2960179297
1.2960183084
1.2963133339
1.2969332366
1.2979039037
1.2992395599
1.3009345033
1.3029538398
1.3052263570
1.3076416137
1.3100529770
1.3122883502
1.3141681044
1.3155279189
1.3162420129
1.3162420129
1.0370432614
1.0381960889
1.0386906330
1.0396642866
1.0410868619
1.0429150076
1.0450940797
1.0475605525
1.0502447763
1.0530733240
1.0559715218
1.0588657644
1.0616850943
1.0643629453
1.0668385748
1.0690579327
1.0709747376
1.0725511147
1.0737576160
1.0745730975
1.0749841049
1.0747206854
1.3197732756
1.3199993960
1.3195451755
1.3186574273
1.3173756943
1.3157572775
1.3138737638
1.3118053740
1.3096356896
1.3074455028
1.3053071130
1.3032808652
1.3014134553
1.2997384024
1.2982780966
1.2970471280
1.2960565162
1.2953169836
1.2948419741
1.2946500545
1.2947646206
1.2952123712
1.2960202253
1.2972089716
1.2987856399
1.3007351344
1.3030113266
1.3055307786
1.3081712298
1.3107762779
1.3131673787
1.3151622498
1.3165970150
1.3173477969
1.3162420129
1.0377691632
1.0389268563
1.0394159451
1.0403788107
1.0417855189
1.0435931160
1.0457475109
1.0481858835
1.0508394232
1.0536356399
1.0565008430
1.0593623947
1.0621502365
1.0647985860
1.0672473430
1.0694429559
1.0713395136
1.0728994092
1.0740933902
1.0749004516
1.0753072277
1.0750333320
1.3193422722
1.3195453608
1.3191013682
1.3182333835
1.3169796121
1.3153954870
1.3135503666
1.3115221024
1.3093920169
1.3072389798
1.3051338711
1.3031362050
1.3012924164
1.2996362329
1.2981905771
1.2969707303
1.2959884124
1.2952549418
1.2947841793
1.2945949005
1.2947105093
1.2951575512
1.2959627041
1.2971465135
1.2987158637
1.3006557080
1.3029202238
1.3054265580
1.3080532768
1.3106449465
1.3130240080
1.3150090573
1.3164369005
1.3171841113
1.3160685539
1.0392059291
1.0403717704
1.0408500943
1.0417916943
1.0431671770
1.0449344235
1.0470404820
1.0494239628
1.0520177285
1.0547511325
1.0575523934
1.0603507338
1.0630778061
1.0656693094
1.0680663476
1.0702163005
1.0720739469
1.0736021807
1.0747721170
1.0755630126
1.0759616672
1.0756670482
1.3184821470
1.3186385407
1.3182144768
1.3173850162
1.3161857853
1.3146686129
1.3128985532
1.3109488731
1.3088965122
1.3068165936
1.3047772110
1.3028362237
1.3010395136
1.2994211709
1.2980051204
1.2968079647
1.2958427743
1.2951220214
1.2946603748
1.2944770120
1.2945953422
1.2950415975
1.2958419651
1.2970164937
1.2985717615
1.3004928019
1.3027343862
1.3052148150
1.3078142997
1.3103793482
1.3127343868
1.3146997948
1.3161137730
1.3168538232
1.3157180222
1.0413232492
1.0424974744
1.0429600381
1.0438705576
1.0452005275
1.0469091681
1.0489453107
1.0512497470
1.0537578299
1.0564015948
1.0591119838
1.0618208245
1.0644621288
1.0669736097
1.0692979892
1.0713838885
1.0731870033
1.0746708969
1.0758071805
1.0765754646
1.0769627658
1.0766378031
1.3171977102
1.3172828153
1.3168873110
1.3161130975
1.3149921740
1.3135712928
1.3119094322
1.3100733658
1.3081337955
1.3061604722
1.3042174454
1.3023601146
1.3006334630
1.2990719965
1.2977009903
1.2965388815
1.2956006405
1.2949003757
1.2944539020
1.2942809572
1.2944049316
1.2948515656
1.2956462881
1.2968083739
1.2983439034
1.3002379844
1.3024462311
1.3048886341
1.3074478524
1.3099733130
1.3122924610
1.3142284150
1.3156215437
1.3163508080
1.3151829056
1.0440761684
1.0452548478
1.0456971757
1.0465678811
1.0478397631
1.0494739639
1.0514217989
1.0536270053
1.0560281975
1.0585608208
1.0611591854
1.0637582604
1.0662948381
1.0687089566
1.0709451746
1.0729535059
1.0746906737
1.0761209995
1.0772166662
1.0779576887
1.0783313158
1.0779676672
1.3154961392
1.3154846553
1.3151247720
1.3144195375
1.3133965560
1.3120964100
1.3105706676
1.3088781414
1.3070818306
1.3052447808
1.3034259073
1.3016773861
1.3000428917
1.2985572632
1.2972473079
1.2961336425
1.2952335419
1.2945631196
1.2941395932
1.2939833652
1.2941177448
1.2945677728
1.2953578214
1.2965060750
1.2980178768
1.2998783446
1.3020441254
1.3044373864
1.3069440090
1.3094173268
1.3116888833
1.3135855731
1.3149507988
1.3156655930
1.3144516937
1.0474055513
1.0485799133
1.0489982972
1.0498220264
1.0510256824
1.0525729704
1.0544184206
1.0565094566
1.0587886326
1.0611953701
1.0636677721
1.0661442287
1.0685644675
1.0708709117
1.0730099601
1.0749330028
1.0765977821
1.0779693890
1.0790206006
1.0797318417
1.0800905594
1.0796821421
1.3133874652
1.3132542813
1.3129350577
1.3123086767
1.3113979292
1.3102366094
1.3088680858
1.3073422959
1.3057135656
1.3040372830
1.3023663708
1.3007490961
1.2992273594
1.2978361023
1.2966036476
1.2955529312
1.2947037525
1.2940744486
1.2936837856
1.2935528556
1.2937047689
1.2941636125
1.2949523568
1.2960877248
1.2975740131
1.2993962071
1.3015120938
1.3038464350
1.3062890715
1.3086982392
1.3109107230
1.3127583359
1.3140885069
1.3147850650
1.3135086540
1.0512391553
1.0523954414
1.0527872141
1.0535589075
1.0546873895
1.0561395815
1.0578739316
1.0598422054
1.0619914241
1.0642653372
1.0666060052
1.0689552378
1.0712555749
1.0734516376
1.0754914664
1.0773276636
1.0789188841
1.0802309402
1.0812371831
1.0819184041
1.0822621474
1.0818064292
1.3108859652
1.3106076962
1.3103317594
1.3097894977
1.3089988704
1.3079868022
1.3067882933
1.3054441266
1.3039995632
1.3025018428
1.3009973421
1.2995298675
1.2981390607
1.2968595990
1.2957210990
1.2947487267
1.2939648084
1.2933899395
1.2930444360
1.2929499981
1.2931293386
1.2936052704
1.2943989523
1.2955252002
1.2969868673
1.2987685623
1.3008292154
1.3030965115
1.3054649361
1.3077986298
1.3099408346
1.3117295549
1.3130173956
1.3136918482
1.3123333121
1.0554942446
1.0566142047
1.0569780061
1.0576952078
1.0587454394
1.0600994298
1.0617201405
1.0635641705
1.0655833188
1.0677257565
1.0699373843
1.0721631503
1.0743480309
1.0764384469
1.0783837277
1.0801374230
1.0816589401
1.0829147381
1.0838786983
1.0845318840
1.0848617455
1.0843611428
1.3080094898
1.3075664168
1.3073337441
1.3068757922
1.3062060816
1.3053451396
1.3043200710
1.3031628927
1.3019100357
1.3006006248
1.2992743113
1.2979700941
1.2967249106
1.2955727105
1.2945439942
1.2936658349
1.2929628500
1.2924577137
1.2921721158
1.2921281451
1.2923478124
1.2928522491
1.2936603096
1.2947843681
1.2962253329
1.2979670726
1.2999695416
1.3021635683
1.3044489022
1.3066965911
1.3087576300
1.3104776355
1.3117157213
1.3123640748
1.3109004124
1.0600803113
1.0611422744
1.0614782665
1.0621415156
1.0631147892
1.0643730635
1.0658842073
1.0676098997
1.0695067523
1.0715271635
1.0736204795
1.0757342593
1.0778153405
1.0798114058
1.0816726394
1.0833532430
1.0848132190
1.0860196143
1.0869467910
1.0875759328
1.0878940767
1.0873572036
1.3047797941
1.3041579555
1.3039657882
1.3035870820
1.3030317011
1.3023147679
1.3014565759
1.3004814178
1.2994177651
1.2982972227
1.2971529771
1.2960191547
1.2949296611
1.2939172234
1.2930126671
1.2922444288
1.2916389339
1.2912205154
1.2910118523
1.2910350335
1.2913109307
1.2918584803
1.2926936448
1.2938257242
1.2952530703
1.2969583215
1.2989022030
1.3010187864
1.3032136227
1.3053656587
1.3073350133
1.3089764906
1.3101572437
1.3107753730
1.3091801940
1.0649028183
1.0658832093
1.0661931874
1.0668062007
1.0677083575
1.0688790812
1.0702912513
1.0719115581
1.0737011455
1.0756161538
1.0776087343
1.0796283469
1.0816230027
1.0835410628
1.0853331434
1.0869538514
1.0883636903
1.0895302868
1.0904284426
1.0910392322
1.0913487770
1.0907912023
1.3012237916
1.3004168661
1.3002597575
1.2999500567
1.2994950965
1.2989060360
1.2981979790
1.2973891304
1.2965014824
1.2955602889
1.2945930219
1.2936292316
1.2926996708
1.2918353980
1.2910669156
1.2904232891
1.2899320233
1.2896184322
1.2895055610
1.2896149107
1.2899656211
1.2905737996
1.2914518308
1.2926052139
1.2940290301
1.2957040773
1.2975914658
1.2996284832
1.3017269248
1.3037745986
1.3056421770
1.3071953681
1.3083110873
1.3088947496
1.3071386577
1.0698680611
1.0707431888
1.0710305484
1.0716001180
1.0724413179
1.0735379060
1.0748675221
1.0764014398
1.0781047291
1.0799365223
1.0818509530
1.0837985789
1.0857278889
1.0875874004
1.0893278464
1.0909041150
1.0922772287
1.0934154612
1.0942940188
1.0948935302
1.0951984388
1.0946425672
1.2973723105
1.2963829399
1.2962529706
1.2959972712
1.2956220414
1.2951362659
1.2945519037
1.2938832059
1.2931477069
1.2923660276
1.2915611857
1.2907588693
1.2899868402
1.2892741712
1.2886503665
1.2881442331
1.2877833911
1.2875931880
1.2875961525
1.2878123883
1.2882585399
1.2889471308
1.2898861953
1.2910766358
1.2925094755
1.2941629713
1.2959981227
1.2979552887
1.2999528500
1.3018883866
1.3036445792
1.3050998613
1.3061427943
1.3066876713
1.3047391945
1.0748870331
1.0756348830
1.0759044275
1.0764400171
1.0772340874
1.0782742698
1.0795423317
1.0810133398
1.0826553833
1.0844296313
1.0862912796
1.0881911931
1.0900777459
1.0918992533
1.0936064366
1.0951545165
1.0965051880
1.0976275146
1.0984970621
1.0990935285
1.0993985665
1.0988724713
1.2932604875
1.2921008511
1.2919879449
1.2917671054
1.2914450027
1.2910304681
1.2905346579
1.2899703827
1.2893531900
1.2887012793
1.2880349708
1.2873772450
1.2867533672
1.2861902933
1.2857158797
1.2853576673
1.2851422044
1.2850936509
1.2852328627
1.2855775049
1.2861407936
1.2869308107
1.2879504153
1.2891950957
1.2906510153
1.2922931542
1.2940818429
1.2959602773
1.2978536639
1.2996701865
1.3013059616
1.3026540068
1.3036165038
1.3041182938
1.3019455173
1.0798792050
1.0804809948
1.0807385951
1.0812516573
1.0820150681
1.0830195287
1.0842499415
1.0856840532
1.0872918297
1.0890354007
1.0908701102
1.0927464586
1.0946123142
1.0964156727
1.0981073498
1.0996431423
1.1009856960
1.1021050567
1.1029770665
1.1035798200
1.1038906163
1.1034258963
1.2889298696
1.2876213538
1.2875136196
1.2873050717
1.2870046013
1.2866230288
1.2861732231
1.2856693303
1.2851277329
1.2845668400
1.2840064853
1.2834685259
1.2829765695
1.2825555381
1.2822310433
1.2820282541
1.2819712466
1.2820814967
1.2823767574
1.2828709856
1.2835728847
1.2844851705
1.2856047050
1.2869207959
1.2884140105
1.2900553639
1.2918039664
1.2936055744
1.2953923709
1.2970838656
1.2985909385
1.2998229839
1.3006977590
1.3011523344
1.2987252988
1.0847757275
1.0852170393
1.0854691894
1.0859722944
1.0867228973
1.0877136764
1.0889313852
1.0903550986
1.0919553763
1.0936942150
1.0955263001
1.0974013037
1.0992664640
1.1010696132
1.1027620033
1.1043004142
1.1056488032
1.1067784003
1.1076651761
1.1082847465
1.1086079618
1.1082369338
1.2844280241
1.2829999749
1.2828840946
1.2826627029
1.2823487560
1.2819572144
1.2815052281
1.2810112064
1.2804954368
1.2799794976
1.2794853269
1.2790356154
1.2786534598
1.2783620234
1.2781841205
1.2781413390
1.2782536692
1.2785381378
1.2790077034
1.2796711423
1.2805314521
1.2815850525
1.2828220685
1.2842250040
1.2857682648
1.2874183637
1.2891327402
1.2908594592
1.2925377651
1.2940990740
1.2954701698
1.2965784154
1.2973589261
1.2977625629
1.2950564764
1.0895202843
1.0897916903
1.0900450250
1.0905509329
1.0913066544
1.0923055550
1.0935347717
1.0949732343
1.0965907873
1.0983482890
1.1001991484
1.1020920059
1.1039736263
1.1057920879
1.1074996054
1.1090544473
1.1104222611
1.1115756260
1.1124904261
1.1131387520
1.1134823384
1.1132351354
1.2798107383
1.2782984133
1.2781600212
1.2778990192
1.2775343054
1.2770870117
1.2765810743
1.2760421460
1.2754976415
1.2749755007
1.2745026431
1.2741048332
1.2738060320
1.2736280496
1.2735903487
1.2737096016
1.2739998808
1.2744717437
1.2751314342
1.2759809225
1.2770162635
1.2782267260
1.2795951330
1.2810968115
1.2826997228
1.2843656045
1.2860499787
1.2877030666
1.2892712235
1.2906981793
1.2919274705
1.2929056594
1.2935866397
1.2939363334
1.2909354448
1.0940692247
1.0941664113
1.0944272539
1.0949480563
1.0957257216
1.0967529335
1.0980156949
1.0994913264
1.1011477411
1.1029438275
1.1048313393
1.1067579430
1.1086703276
1.1105174051
1.1122529732
1.1138373040
1.1152380600
1.1164292652
1.1173864631
1.1180771046
1.1184506100
1.1183527758
1.2751459159
1.2735877393
1.2734117528
1.2730837439
1.2726303503
1.2720806109
1.2714675636
1.2708270426
1.2701968782
1.2696147043
1.2691154832
1.2687304738
1.2684860072
1.2684029936
1.2684969347
1.2687781026
1.2692526093
1.2699223038
1.2707846244
1.2718330273
1.2730554247
1.2744332410
1.2759416971
1.2775489125
1.2792165019
1.2809015182
1.2825576134
1.2841371842
1.2855937380
1.2868835182
1.2879672655
1.2888114379
1.2893895617
1.2896834144
1.2863850546
1.0983905380
1.0983139968
1.0985879983
1.0991344501
1.0999489047
1.1010220419
1.1023372998
1.1038690659
1.1055822957
1.1074333067
1.1093720565
1.1113455055
1.1133008120
1.1151883730
1.1169641689
1.1185909050
1.1200384686
1.1212823397
1.1222974958
1.1230457525
1.1234606436
1.1235316252
1.2705134080
1.2689477548
1.2687187000
1.2682969450
1.2677183310
1.2670209702
1.2662489673
1.2654511300
1.2646789629
1.2639831599
1.2634098548
1.2629982757
1.2627786446
1.2627713826
1.2629873122
1.2634286648
1.2640913768
1.2649662033
1.2660396090
1.2672948458
1.2687106154
1.2702600521
1.2719108129
1.2736241904
1.2753559974
1.2770591199
1.2786857461
1.2801906844
1.2815346459
1.2826863455
1.2836236849
1.2843330222
1.2848076151
1.2850452431
1.2814633429
1.1024609858
1.1022154316
1.1025073365
1.1030884368
1.1039520365
1.1050856560
1.1064689509
1.1080722972
1.1098569267
1.1117762283
1.1137784189
1.1158101391
1.1178195855
1.1197592260
1.1215876895
1.1232703726
1.1247794307
1.1260917198
1.1271815363
1.1280044418
1.1284744508
1.1287271146
1.2660055624
1.2644673217
1.2641695806
1.2636296689
1.2628931911
1.2620075042
1.2610291967
1.2600225783
1.2590559477
1.2581963359
1.2575041034
1.2570288394
1.2568060740
1.2568560290
1.2571840022
1.2577824328
1.2586347903
1.2597183371
1.2610064633
1.2624706735
1.2640796276
1.2657980415
1.2675864278
1.2694000649
1.2711899640
1.2729057992
1.2744990654
1.2759274444
1.2771589028
1.2781743081
1.2789681071
1.2795457571
1.2799194544
1.2801023542
1.2762694689
1.1062635075
1.1058571608
1.1061706924
1.1067935006
1.1077159373
1.1089214765
1.1103850861
1.1120723769
1.1139403862
1.1159394455
1.1180162173
1.1201174255
1.1221927830
1.1241972372
1.1260923016
1.1278460770
1.1294328038
1.1308305039
1.1320128238
1.1329291079
1.1334706649
1.1339117113
1.2617252594
1.2602424683
1.2598603181
1.2591824173
1.2582625329
1.2571558190
1.2559320078
1.2546730631
1.2534669367
1.2524000343
1.2515497629
1.2509782272
1.2507274664
1.2508176266
1.2512475474
1.2519981365
1.2530382133
1.2543293470
1.2558300211
1.2574987584
1.2592936859
1.2611713348
1.2630858652
1.2649877407
1.2668245624
1.2685441134
1.2700982695
1.2714482174
1.2725691920
1.2734535807
1.2741111519
1.2745648169
1.2748439862
1.2749757556
1.2709425736
1.1097841958
1.1092280299
1.1095658599
1.1102354679
1.1112238082
1.1125097636
1.1140630932
1.1158442644
1.1178059631
1.1198955456
1.1220583923
1.1242416710
1.1263969374
1.1284817977
1.1304606069
1.1323038698
1.1339873987
1.1354898872
1.1367843780
1.1378148506
1.1384478237
1.1390788675
1.2577752309
1.2563662694
1.2558835388
1.2550556875
1.2539382097
1.2525901907
1.2510942805
1.2495518029
1.2480728300
1.2467657516
1.2457273847
1.2450340664
1.2447351941
1.2448507585
1.2453722058
1.2462673812
1.2474886492
1.2489801789
1.2506842498
1.2525456760
1.2545120107
1.2565322191
1.2585552233
1.2605281563
1.2623968586
1.2641087699
1.2656173909
1.2668881085
1.2679033291
1.2686659881
1.2691993656
1.2695413984
1.2697361355
1.2698224487
1.2656542537
1.1130092151
1.1123162927
1.1126800163
1.1133995202
1.1144582100
1.1158302216
1.1174800123
1.1193629399
1.1214275221
1.1236184564
1.1258802336
1.1281608391
1.1304139246
1.1325997894
1.1346853547
1.1366428701
1.1384486630
1.1400808900
1.1415114558
1.1426803453
1.1434290378
1.1442483622
1.2542428177
1.2529147053
1.2523137036
1.2513368483
1.2500245096
1.2484326444
1.2466558303
1.2448160486
1.2430474371
1.2414823145
1.2402385346
1.2394076921
1.2390468838
1.2391756444
1.2397772282
1.2408053715
1.2421949147
1.2438717840
1.2457616125
1.2477955086
1.2499109711
1.2520504006
1.2541588291
1.2561816747
1.2580647362
1.2597566844
1.2612138743
1.2624065013
1.2633238497
1.2639780868
1.2644036888
1.2646505674
1.2647741863
1.2648224816
1.2605927424
1.1159241199
1.1151090610
1.1154991112
1.1162694423
1.1174000602
1.1188605935
1.1206105421
1.1226006208
1.1247757497
1.1270786123
1.1294534912
1.1318498325
1.1342239011
1.1365389550
1.1387642908
1.1408729720
1.1428398618
1.1446395181
1.1462395591
1.1475757535
1.1484665136
1.1494725550
1.2511750232
1.2499235795
1.2491830869
1.2480796697
1.2465998407
1.2447859967
1.2427434773
1.2406159750
1.2385629908
1.2367417791
1.2352918104
1.2343200251
1.2338909363
1.2340231565
1.2346913156
1.2358348399
1.2373711323
1.2392083014
1.2412560695
1.2434327774
1.2456670235
1.2478959870
1.2500622615
1.2521111093
1.2539898530
1.2556497713
1.2570510800
1.2581691456
1.2589995611
1.2595620886
1.2598997221
1.2600709161
1.2601389658
1.2601578768
1.2559400578
1.1185149937
1.1175935426
1.1180090486
1.1188286682
1.1200294144
1.1215769873
1.1234266567
1.1255253607
1.1278154033
1.1302385569
1.1327401563
1.1352725316
1.1377961157
1.1402786565
1.1426928907
1.1450124402
1.1472077087
1.1492420474
1.1510653430
1.1525932504
1.1536124973
1.1548135704
1.2485384826
1.2473522133
1.2464441783
1.2452749647
1.2436925268
1.2417131479
1.2394526518
1.2370775724
1.2347734446
1.2327224466
1.2310851046
1.2299828352
1.2294867722
1.2296142174
1.2303314636
1.2315646754
1.2332154522
1.2351761015
1.2373425622
1.2396223810
1.2419370351
1.2442200677
1.2464130330
1.2484623447
1.2503180528
1.2519350201
1.2532779289
1.2543273073
1.2550841681
1.2555739745
1.2558453747
1.2559618306
1.2559908438
1.2559894902
1.2518488254
1.1207724586
1.1197611097
1.1201998287
1.1210645403
1.1223298301
1.1239582470
1.1259017681
1.1281046417
1.1305077997
1.1330536108
1.1356904570
1.1383763082
1.1410796027
1.1437777360
1.1464531631
1.1490862371
1.1516452457
1.1540713930
1.1562503783
1.1579471957
1.1586211497
1.1600724271
1.2461755578
1.2450553408
1.2439076024
1.2428082561
1.2412564843
1.2392241706
1.2368395093
1.2342951706
1.2318045850
1.2295751327
1.2277876089
1.2265767800
1.2260196791
1.2261324968
1.2268746146
1.2281615303
1.2298823858
1.2319173305
1.2341519735
1.2364859462
1.2388358378
1.2411331965
1.2433197002
1.2453437959
1.2471589424
1.2487240262
1.2500082966
1.2509970002
1.2516953738
1.2521325273
1.2523599022
1.2524425857
1.2524489002
1.2524362291
1.2484231924
1.1226981859
1.1216137769
1.1220723027
1.1229756070
1.1242964378
1.1259949607
1.1280207099
1.1303161329
1.1328217300
1.1354816399
1.1382491411
1.1410911143
1.1439900322
1.1469440917
1.1499659477
1.1530804358
1.1563241188
1.1597496864
1.1634385956
1.1675272314
1.1722597253
1.1784691555
1.2007948192
1.2027889680
1.2400560037
1.2396443613
1.2402572848
1.2401358148
1.2390822220
1.2372643559
1.2349262405
1.2323329237
1.2297456900
1.2274046884
1.2255129151
1.2242184326
1.2236041902
1.2236863722
1.2244200712
1.2257140893
1.2274498254
1.2295000917
1.2317444772
1.2340780617
1.2364148936
1.2386859699
1.2408338535
1.2428093769
1.2445695078
1.2460770370
1.2473053770
1.2482436518
1.2488998930
1.2493047654
1.2495098125
1.2495787190
1.2495776795
1.2495620204
1.2457086920
1.1243080866
1.1231673494
1.1236416062
1.1245756475
1.1259409089
1.1276957750
1.1297878341
1.1321579447
1.1347459141
1.1374967668
1.1403670314
1.1433297869
1.1463771277
1.1495205719
1.1527894273
1.1562273149
1.1598890773
1.1638403170
1.1681634439
1.1729803252
1.1785298650
1.1855892775
1.1995410856
1.2013763023
1.2316774084
1.2357976578
1.2377672429
1.2383257343
1.2376683749
1.2360672599
1.2338243134
1.2312467007
1.2286271909
1.2262289384
1.2242708791
1.2229107211
1.2222361207
1.2222643467
1.2229493670
1.2241979359
1.2258890118
1.2278932655
1.2300886995
1.2323691199
1.2346481033
1.2368571244
1.2389399167
1.2408495396
1.2425460650
1.2439956169
1.2451749805
1.2460760386
1.2467080823
1.2471013290
1.2473050300
1.2473789109
1.2473846276
1.2473735533
1.2436930428
1.1256298578
1.1244491035
1.1249348248
1.1258913565
1.1272893103
1.1290858107
1.1312268330
1.1336515597
1.1362983665
1.1391115841
1.1420484207
1.1450844179
1.1482161711
1.1514617457
1.1548583420
1.1584575181
1.1623202340
1.1665141781
1.1711198515
1.1762609949
1.1821979761
1.1896208166
1.2008171014
1.2073869761
1.2289515094
1.2346704068
1.2371246134
1.2378813735
1.2373438251
1.2358177786
1.2336121137
1.2310397768
1.2283999776
1.2259618975
1.2239492240
1.2225227398
1.2217720449
1.2217157870
1.2223094538
1.2234618562
1.2250541570
1.2269593025
1.2290573163
1.2312432417
1.2334315680
1.2355546901
1.2375573310
1.2393942304
1.2410278320
1.2424267672
1.2435702092
1.2444515743
1.2450799167
1.2454832057
1.2457063773
1.2458031524
1.2458287827
1.2458292540
1.2423175693
1.1266967594
1.1254917517
1.1259847314
1.1269556442
1.1283747949
1.1301986267
1.1323719373
1.1348323005
1.1375161684
1.1403659938
1.1433377293
1.1464067150
1.1495707484
1.1528506985
1.1562878095
1.1599382284
1.1638671192
1.1681445946
1.1728509526
1.1781074535
1.1841606782
1.1915611360
1.2013863663
1.2099670918
1.2268039156
1.2337085220
1.2368495336
1.2379319440
1.2375649113
1.2361355415
1.2339829888
1.2314323983
1.2287882251
1.2263219948
1.2242585066
1.2227593940
1.2219158212
1.2217491522
1.2222190466
1.2232397047
1.2246979087
1.2264718649
1.2284458394
1.2305174883
1.2326027520
1.2346348259
1.2365589363
1.2383307996
1.2399144295
1.2412801353
1.2424085193
1.2432933826
1.2439422197
1.2443792322
1.2446434128
1.2447809162
1.2448392157
1.2448578763
1.2414972851
1.1275397947
1.1263257485
1.1268218450
1.1277991862
1.1292283508
1.1310658106
1.1332558539
1.1357348689
1.1384374129
1.1413035945
1.1442871135
1.1473616563
1.1505244566
1.1537972890
1.1572236924
1.1608631390
1.1647845362
1.1690607768
1.1737718551
1.1790318343
1.1850597602
1.1922950968
1.2013612533
1.2106210741
1.2248772964
1.2326016307
1.2364645148
1.2379683663
1.2378461951
1.2365652170
1.2345028827
1.2320015777
1.2293730469
1.2268916585
1.2247834582
1.2232115254
1.2222698690
1.2219844378
1.2223212186
1.2232018651
1.2245205305
1.2261619097
1.2280151636
1.2299807654
1.2319758952
1.2339340628
1.2358004561
1.2375311763
1.2390911868
1.2404518578
1.2415944654
1.2425122563
1.2432100956
1.2437072045
1.2440353684
1.2442320217
1.2443358729
1.2443793423
1.2411421663
1.1281818228
1.1269734883
1.1274684873
1.1284441846
1.1298720725
1.1317094941
1.1339011334
1.1363829776
1.1390882227
1.1419548110
1.1449339426
1.1479970339
1.1511398610
1.1543840259
1.1577742772
1.1613724953
1.1652507302
1.1694846159
1.1741544986
1.1793687773
1.1853261805
1.1924066555
1.2010861483
1.2104643076
1.2234486011
1.2315980169
1.2359589323
1.2377998408
1.2378953251
1.2367581343
1.2347906471
1.2323468571
1.2297432702
1.2272560828
1.2251125390
1.2234778390
1.2224498850
1.2220603318
1.2222823469
1.2230454081
1.2242509866
1.2257898007