<VTKFile type="UnstructuredGrid" version="0.1">
	<UnstructuredGrid>
		<Piece NumberOfPoints="13548" NumberOfCells="3387">
			<CellData>
				<DataArray type="Int32" Name="ghost" NumberOfComponents="1" Format="ascii">
1
1
1
1
1
1
1
1
1
1
1
1
1
1
1
1
1
1
1
1
1
1
1
1
1
1
1
1
1
1
1
1
1
1
1
1
1
1
1
1
1
1
1
1
1
1
1
1
1
1
1
1
1
1
1
1
1
1
0
0
0
0
0
0
0
0
0
0
0
0
0
0
0
0
0
0
0
0
1
1
0
0
0
0
0
0
0
0
0
0
0
0
0
0
0
0
0
0
0
0
0
0
0
0
0
0
0
0
0
0
0
0
0
1
1
0
0
0
0
0
0
0
0
0
0
0
0
0
0
0
0
0
0
0
0
1
1
0
0
0
0
0
0
0
0
0
0
0
0
0
0
0
0
0
0
0
0
0
0
0
0
0
0
0
0
0
0
0
0
0
1
1
0
0
0
0
0
0
0
0
0
0
0
0
0
0
0
0
0
0
0
0
1
1
0
0
0
0
0
0
0
0
0
0
0
0
0
0
0
0
0
0
0
0
0
0
0
0
0
0
0
0
0
0
0
0
0
1
1
0
0
0
0
0
0
0
0
0
0
0
0
0
0
0
0
0
0
0
0
1
1
0
0
0
0
0
0
0
0
0
0
0
0
0
0
0
0
0
0
0
0
0
0
0
0
0
0
0
0
0
0
0
0
0
1
1
0
0
0
0
0
0
0
0
0
0
0
0
0
0
0
0
0
0
0
0
1
1
0
0
0
0
0
0
0
0
0
0
0
0
0
0
0
0
0
0
0
0
0
0
0
0
0
0
0
0
0
0
0
0
0
1
1
0
0
0
0
0
0
0
0
0
0
0
0
0
0
0
0
0
0
0
0
1
1
0
0
0
0
0
0
0
0
0
0
0
0
0
0
0
0
0
0
0
0
0
0
0
0
0
0
0
0
0
0
0
0
0
1
1
0
0
0
0
0
0
0
0
0
0
0
0
0
0
0
0
0
0
0
0
1
1
0
0
0
0
0
0
0
0
0
0
0
0
0
0
0
0
0
0
0
0
0
0
0
0
0
0
0
0
0
0
0
0
0
1
1
0
0
0
0
0
0
0
0
0
0
0
0
0
0
0
0
0
0
0
0
1
1
0
0
0
0
0
0
0
0
0
0
0
0
0
0
0
0
0
0
0
0
0
0
0
0
0
0
0
0
0
0
0
0
0
1
1
0
0
0
0
0
0
0
0
0
0
0
0
0
0
0
0
0
0
0
0
1
1
0
0
0
0
0
0
0
0
0
0
0
0
0
0
0
0
0
0
0
0
0
0
0
0
0
0
0
0
0
0
0
0
0
1
1
0
0
0
0
0
0
0
0
0
0
0
0
0
0
0
0
0
0
0
0
1
1
0
0
0
0
0
0
0
0
0
0
0
0
0
0
0
0
0
0
0
0
0
0
0
0
0
0
0
0
0
0
0
0
0
1
1
0
0
0
0
0
0
0
0
0
0
0
0
0
0
0
0
0
0
0
0
1
1
0
0
0
0
0
0
0
0
0
0
0
0
0
0
0
0
0
0
0
0
0
0
0
0
0
0
0
0
0
0
0
0
0
1
1
0
0
0
0
0
0
0
0
0
0
0
0
0
0
0
0
0
0
0
0
1
1
0
0
0
0
0
0
0
0
0
0
0
0
0
0
0
0
0
0
0
0
0
0
0
0
0
0
0
0
0
0
0
0
0
1
1
0
0
0
0
0
0
0
0
0
0
0
0
0
0
0
0
0
0
0
0
1
1
0
0
0
0
0
0
0
0
0
0
0
0
0
0
0
0
0
0
0
0
0
0
0
0
0
0
0
0
0
0
0
0
0
1
1
0
0
0
0
0
0
0
0
0
0
0
0
0
0
0
0
0
0
0
0
1
1
0
0
0
0
0
0
0
0
0
0
0
0
0
0
0
0
0
0
0
0
0
0
0
0
0
0
0
0
0
0
0
0
0
1
1
0
0
0
0
0
0
0
0
0
0
0
0
0
0
0
0
0
0
0
0
1
1
0
0
0
0
0
0
0
0
0
0
0
0
0
0
0
0
0
0
0
0
0
0
0
0
0
0
0
0
0
0
0
0
0
1
1
0
0
0
0
0
0
0
0
0
0
0
0
0
0
0
0
0
0
0
0
1
1
0
0
0
0
0
0
0
0
0
0
0
0
0
0
0
0
0
0
0
0
0
0
0
0
0
0
0
0
0
0
0
0
0
1
1
0
0
0
0
0
0
0
0
0
0
0
0
0
0
0
0
0
0
0
0
1
1
0
0
0
0
0
0
0
0
0
0
0
0
0
0
0
0
0
0
0
0
0
0
0
0
0
0
0
0
0
0
0
0
0
1
1
0
0
0
0
0
0
0
0
0
0
0
0
0
0
0
0
0
0
0
0
1
1
0
0
0
0
0
0
0
0
0
0
0
0
0
0
0
0
0
0
0
0
0
0
0
0
0
0
0
0
0
0
0
0
0
1
1
0
0
0
0
0
0
0
0
0
0
0
0
0
0
0
0
0
0
0
0
1
1
0
0
0
0
0
0
0
0
0
0
0
0
0
0
0
0
0
0
0
0
0
0
0
0
0
0
0
0
0
0
0
0
0
1
1
0
0
0
0
0
0
0
0
0
0
0
0
0
0
0
0
0
0
0
0
1
1
0
0
0
0
0
0
0
0
0
0
0
0
0
0
0
0
0
0
0
0
0
0
0
0
0
0
0
0
0
0
0
0
0
1
1
0
0
0
0
0
0
0
0
0
0
0
0
0
0
0
0
0
0
0
0
1
1
0
0
0
0
0
0
0
0
0
0
0
0
0
0
0
0
0
0
0
0
0
0
0
0
0
0
0
0
0
0
0
0
0
1
1
0
0
0
0
0
0
0
0
0
0
0
0
0
0
0
0
0
0
0
0
1
1
0
0
0
0
0
0
0
0
0
0
0
0
0
0
0
0
0
0
0
0
0
0
0
0
0
0
0
0
0
0
0
0
0
1
1
0
0
0
0
0
0
0
0
0
0
0
0
0
0
0
0
0
0
0
0
1
1
0
0
0
0
0
0
0
0
0
0
0
0
0
0
0
0
0
0
0
0
0
0
0
0
0
0
0
0
0
0
0
0
0
1
1
0
0
0
0
0
0
0
0
0
0
0
0
0
0
0
0
0
0
0
0
1
1
0
0
0
0
0
0
0
0
0
0
0
0
0
0
0
0
0
0
0
0
0
0
0
0
0
0
0
0
0
0
0
0
0
1
1
0
0
0
0
0
0
0
0
0
0
0
0
0
0
0
0
0
0
0
0
0
1
1
0
0
0
0
0
0
0
0
0
0
0
0
0
0
0
0
0
0
0
0
0
0
0
0
0
0
0
0
0
0
0
0
0
0
1
1
0
0
0
0
0
0
0
0
0
0
0
0
0
0
0
0
0
0
0
0
0
0
0
0
0
0
0
0
0
0
0
0
0
0
0
0
0
0
0
0
0
0
0
0
0
0
0
0
0
0
0
0
0
0
0
0
0
1
1
0
0
0
0
0
0
0
0
0
0
0
0
0
0
0
0
0
0
0
0
0
0
0
0
0
0
0
0
0
0
0
0
0
0
0
0
0
0
0
0
0
0
0
0
0
0
0
0
0
0
0
0
0
0
0
0
0
1
1
0
0
0
0
0
0
0
0
0
0
0
0
0
0
0
0
0
0
0
0
0
0
0
0
0
0
0
0
0
0
0
0
0
0
0
0
0
0
0
0
0
0
0
0
0
0
0
0
0
0
0
0
0
0
0
0
0
1
1
0
0
0
0
0
0
0
0
0
0
0
0
0
0
0
0
0
0
0
0
0
0
0
0
0
0
0
0
0
0
0
0
0
0
0
0
0
0
0
0
0
0
0
0
0
0
0
0
0
0
0
0
0
0
0
0
0
1
1
0
0
0
0
0
0
0
0
0
0
0
0
0
0
0
0
0
0
0
0
0
0
0
0
0
0
0
0
0
0
0
0
0
0
0
0
0
0
0
0
0
0
0
0
0
0
0
0
0
0
0
0
0
0
0
0
0
1
1
0
0
0
0
0
0
0
0
0
0
0
0
0
0
0
0
0
0
0
0
0
0
0
0
0
0
0
0
0
0
0
0
0
0
0
0
0
0
0
0
0
0
0
0
0
0
0
0
0
0
0
0
0
0
0
0
0
1
1
0
0
0
0
0
0
0
0
0
0
0
0
0
0
0
0
0
0
0
0
0
0
0
0
0
0
0
0
0
0
0
0
0
0
0
0
0
0
0
0
0
0
0
0
0
0
0
0
0
0
0
0
0
0
0
0
0
1
1
0
0
0
0
0
0
0
0
0
0
0
0
0
0
0
0
0
0
0
0
0
0
0
0
0
0
0
0
0
0
0
0
0
0
0
0
0
0
0
0
0
0
0
0
0
0
0
0
0
0
0
0
0
0
0
0
0
1
1
0
0
0
0
0
0
0
0
0
0
0
0
0
0
0
0
0
0
0
0
0
0
0
0
0
0
0
0
0
0
0
0
0
0
0
0
0
0
0
0
0
0
0
0
0
0
0
0
0
0
0
0
0
0
0
0
0
1
1
0
0
0
0
0
0
0
0
0
0
0
0
0
0
0
0
0
0
0
0
0
0
0
0
0
0
0
0
0
0
0
0
0
0
0
0
0
0
0
0
0
0
0
0
0
0
0
0
0
0
0
0
0
0
0
0
0
1
1
0
0
0
0
0
0
0
0
0
0
0
0
0
0
0
0
0
0
0
0
0
1
1
0
0
0
0
0
0
0
0
0
0
0
0
0
0
0
0
0
0
0
0
0
0
0
0
0
0
0
0
0
0
0
0
0
0
1
1
0
0
0
0
0
0
0
0
0
0
0
0
0
0
0
0
0
0
0
0
1
1
0
0
0
0
0
0
0
0
0
0
0
0
0
0
0
0
0
0
0
0
0
0
0
0
0
0
0
0
0
0
0
0
0
1
1
0
0
0
0
0
0
0
0
0
0
0
0
0
0
0
0
0
0
0
0
1
1
0
0
0
0
0
0
0
0
0
0
0
0
0
0
0
0
0
0
0
0
0
0
0
0
0
0
0
0
0
0
0
0
0
1
1
0
0
0
0
0
0
0
0
0
0
0
0
0
0
0
0
0
0
0
0
1
1
0
0
0
0
0
0
0
0
0
0
0
0
0
0
0
0
0
0
0
0
0
0
0
0
0
0
0
0
0
0
0
0
0
1
1
0
0
0
0
0
0
0
0
0
0
0
0
0
0
0
0
0
0
0
0
1
1
0
0
0
0
0
0
0
0
0
0
0
0
0
0
0
0
0
0
0
0
0
0
0
0
0
0
0
0
0
0
0
0
0
1
1
0
0
0
0
0
0
0
0
0
0
0
0
0
0
0
0
0
0
0
0
1
1
0
0
0
0
0
0
0
0
0
0
0
0
0
0
0
0
0
0
0
0
0
0
0
0
0
0
0
0
0
0
0
0
0
1
1
0
0
0
0
0
0
0
0
0
0
0
0
0
0
0
0
0
0
0
0
1
1
0
0
0
0
0
0
0
0
0
0
0
0
0
0
0
0
0
0
0
0
0
0
0
0
0
0
0
0
0
0
0
0
0
1
1
0
0
0
0
0
0
0
0
0
0
0
0
0
0
0
0
0
0
0
0
1
1
0
0
0
0
0
0
0
0
0
0
0
0
0
0
0
0
0
0
0
0
0
0
0
0
0
0
0
0
0
0
0
0
0
1
1
0
0
0
0
0
0
0
0
0
0
0
0
0
0
0
0
0
0
0
0
1
1
0
0
0
0
0
0
0
0
0
0
0
0
0
0
0
0
0
0
0
0
0
0
0
0
0
0
0
0
0
0
0
0
0
1
1
0
0
0
0
0
0
0
0
0
0
0
0
0
0
0
0
0
0
0
0
1
1
0
0
0
0
0
0
0
0
0
0
0
0
0
0
0
0
0
0
0
0
0
0
0
0
0
0
0
0
0
0
0
0
0
1
1
0
0
0
0
0
0
0
0
0
0
0
0
0
0
0
0
0
0
0
0
1
1
0
0
0
0
0
0
0
0
0
0
0
0
0
0
0
0
0
0
0
0
0
0
0
0
0
0
0
0
0
0
0
0
0
1
1
0
0
0
0
0
0
0
0
0
0
0
0
0
0
0
0
0
0
0
0
1
1
0
0
0
0
0
0
0
0
0
0
0
0
0
0
0
0
0
0
0
0
0
0
0
0
0
0
0
0
0
0
0
0
0
1
1
0
0
0
0
0
0
0
0
0
0
0
0
0
0
0
0
0
0
0
0
1
1
0
0
0
0
0
0
0
0
0
0
0
0
0
0
0
0
0
0
0
0
0
0
0
0
0
0
0
0
0
0
0
0
0
1
1
0
0
0
0
0
0
0
0
0
0
0
0
0
0
0
0
0
0
0
0
1
1
0
0
0
0
0
0
0
0
0
0
0
0
0
0
0
0
0
0
0
0
0
0
0
0
0
0
0
0
0
0
0
0
0
1
1
0
0
0
0
0
0
0
0
0
0
0
0
0
0
0
0
0
0
0
0
1
1
0
0
0
0
0
0
0
0
0
0
0
0
0
0
0
0
0
0
0
0
0
0
0
0
0
0
0
0
0
0
0
0
0
1
1
0
0
0
0
0
0
0
0
0
0
0
0
0
0
0
0
0
0
0
0
1
1
0
0
0
0
0
0
0
0
0
0
0
0
0
0
0
0
0
0
0
0
0
0
0
0
0
0
0
0
0
0
0
0
0
1
1
0
0
0
0
0
0
0
0
0
0
0
0
0
0
0
0
0
0
0
0
1
1
0
0
0
0
0
0
0
0
0
0
0
0
0
0
0
0
0
0
0
0
0
0
0
0
0
0
0
0
0
0
0
0
0
1
1
0
0
0
0
0
0
0
0
0
0
0
0
0
0
0
0
0
0
0
0
1
1
0
0
0
0
0
0
0
0
0
0
0
0
0
0
0
0
0
0
0
0
0
0
0
0
0
0
0
0
0
0
0
0
0
1
1
0
0
0
0
0
0
0
0
0
0
0
0
0
0
0
0
0
0
0
0
1
1
0
0
0
0
0
0
0
0
0
0
0
0
0
0
0
0
0
0
0
0
0
0
0
0
0
0
0
0
0
0
0
0
0
1
1
0
0
0
0
0
0
0
0
0
0
0
0
0
0
0
0
0
0
0
0
1
1
0
0
0
0
0
0
0
0
0
0
0
0
0
0
0
0
0
0
0
0
0
0
0
0
0
0
0
0
0
0
0
0
0
1
1
0
0
0
0
0
0
0
0
0
0
0
0
0
0
0
0
0
0
0
0
1
1
0
0
0
0
0
0
0
0
0
0
0
0
0
0
0
0
0
0
0
0
0
0
0
0
0
0
0
0
0
0
0
0
0
1
1
0
0
0
0
0
0
0
0
0
0
0
0
0
0
0
0
0
0
0
0
1
1
0
0
0
0
0
0
0
0
0
0
0
0
0
0
0
0
0
0
0
0
0
0
0
0
0
0
0
0
0
0
0
0
0
1
1
1
1
1
1
1
1
1
1
1
1
1
1
1
1
1
1
1
1
1
1
1
1
1
1
1
1
1
1
1
1
1
1
1
1
1
1
1
1
1
1
1
1
1
1
1
1
1
1
1
1
1
1
1
1
1
1
				</DataArray>
				<DataArray type="Float64" Name="h" NumberOfComponents="1" Format="ascii">
1.3049846149
1.3053465518
1.3053752817
1.3054450456
1.3055786619
1.3058068754
1.3061639794
1.3066820643
1.3073853728
1.3082845315
1.3093721752
1.3106215423
1.3119875278
1.3134109514
1.3148251203
1.3161626882
1.3173624941
1.3183741751
1.3191600787
1.3196955271
1.3199663982
1.3199663982
1.1467375281
1.1463493491
1.1464597921
1.1466647673
1.1469379742
1.1472487614
1.1475675074
1.1478692480
1.1481337534
1.1483449990
1.1484908748
1.1485614824
1.1485482720
1.1484439046
1.1482408869
1.1479308842
1.1475043698
1.1469489735
1.1462482607
1.1453804926
1.1443162302
1.1430165310
1.1414315320
1.1394995708
1.1371497146
1.1343088711
1.1309165499
1.1269513440
1.1224676134
1.1176387239
1.1127913907
1.1084011265
1.1050278464
1.1031860665
1.1031860665
1.3053465518
1.3057502259
1.3057501111
1.3057601751
1.3057994210
1.3058933895
1.3060704369
1.3063568374
1.3067721961
1.3073248823
1.3080088040
1.3088029451
1.3096729672
1.3105753545
1.3114631650
1.3122915219
1.3130226491
1.3136285860
1.3140914515
1.3144023806
1.3145581975
1.3199663982
1.1463493491
1.1459305268
1.1460469382
1.1462636304
1.1465538816
1.1468864842
1.1472312146
1.1475625543
1.1478598445
1.1481067963
1.1482912246
1.1484033590
1.1484349974
1.1483794189
1.1482301032
1.1479801878
1.1476223685
1.1471476272
1.1465445624
1.1457989528
1.1448924030
1.1438017738
1.1424990683
1.1409514825
1.1391237376
1.1369828362
1.1345067544
1.1316996510
1.1286119460
1.1253639888
1.1221648741
1.1193081419
1.1171341166
1.1159538125
1.1031860665
1.3056649169
1.3060001704
1.3060081552
1.3060330093
1.3060910495
1.3062041072
1.3063962170
1.3066892779
1.3070990909
1.3076314118
1.3082791978
1.3090223405
1.3098291533
1.3106601001
1.3114729419
1.3122276134
1.3128907401
1.3134380469
1.3138545272
1.3141333954
1.3142728388
1.3196214785
1.1459876304
1.1455892468
1.1457112946
1.1459380422
1.1462408725
1.1465866371
1.1469435099
1.1472848154
1.1475891201
1.1478396144
1.1480237259
1.1481313251
1.1481538002
1.1480839108
1.1479144588
1.1476377211
1.1472453550
1.1467271799
1.1460706571
1.1452607244
1.1442789095
1.1431034947
1.1417104211
1.1400746673
1.1381740551
1.1359951279
1.1335417785
1.1308476571
1.1279889127
1.1250952298
1.1223528848
1.1199895253
1.1182423290
1.1173117462
1.1050334909
1.3063078533
1.3065112433
1.3065341445
1.3065862016
1.3066787132
1.3068265658
1.3070456753
1.3073496784
1.3077471338
1.3082387416
1.3088155072
1.3094588841
1.3101420999
1.3108331467
1.3114988106
1.3121083839
1.3126371766
1.3130682990
1.3133926033
1.3136076189
1.3137144051
1.3189461128
1.1452355053
1.1448800494
1.1450135056
1.1452605593
1.1455887066
1.1459608438
1.1463418926
1.1467028373
1.1470206761
1.1472775463
1.1474600960
1.1475574833
1.1475602991
1.1474603099
1.1472490411
1.1469171779
1.1464545020
1.1458488111
1.1450857342
1.1441491525
1.1430212856
1.1416843363
1.1401233713
1.1383301449
1.1363093716
1.1340859809
1.1317123417
1.1292737342
1.1268861068
1.1246843775
1.1228008310
1.1213375936
1.1203515918
1.1198599684
1.1084961746
1.3072863123
1.3073036228
1.3073459607
1.3074333732
1.3075704342
1.3077626929
1.3080150907
1.3083300056
1.3087059983
1.3091366176
1.3096098606
1.3101089650
1.3106136362
1.3111021423
1.3115538866
1.3119515393
1.3122831148
1.3125428015
1.3127304782
1.3128505036
1.3129085917
1.3179701877
1.1440353308
1.1437489798
1.1438998922
1.1441779032
1.1445444465
1.1449563118
1.1453734418
1.1457632511
1.1461003485
1.1463652661
1.1465434764
1.1466230912
1.1465935701
1.1464453174
1.1461681603
1.1457507437
1.1451805662
1.1444431800
1.1435225944
1.1424026649
1.1410687040
1.1395113182
1.1377320247
1.1357501246
1.1336114177
1.1313954548
1.1292179309
1.1272234438
1.1255614393
1.1243475211
1.1236200635
1.1233121483
1.1232680492
1.1233070214
1.1131692681
1.3086128200
1.3084020622
1.3084654817
1.3085910525
1.3087756805
1.3090142203
1.3092989600
1.3096191630
1.3099615494
1.3103109359
1.3106512697
1.3109673123
1.3112459452
1.3114774126
1.3116563251
1.3117819786
1.3118586795
1.3118953015
1.3119041104
1.3118991604
1.3118929680
1.3167371253
1.1423020317
1.1421154115
1.1422902768
1.1426105628
1.1430291992
1.1434945389
1.1439597263
1.1443873341
1.1447487331
1.1450222853
1.1451919014
1.1452443615
1.1451677680
1.1449509850
1.1445820307
1.1440475350
1.1433330075
1.1424225306
1.1413000788
1.1399523132
1.1383722517
1.1365658392
1.1345605997
1.1324152500
1.1302293116
1.1281469566
1.1263492306
1.1250280513
1.1243371753
1.1243312899
1.1249160391
1.1258395389
1.1267509480
1.1273111577
1.1185743087
1.3102977677
1.3098306902
1.3099138815
1.3100748987
1.3103027888
1.3105813955
1.3108898820
1.3112037547
1.3114970786
1.3117450131
1.3119265611
1.3120273503
1.3120412745
1.3119711159
1.3118281082
1.3116304410
1.3114016684
1.3111687231
1.3109597341
1.3108016645
1.3107163903
1.3153028321
1.1399262980
1.1398739097
1.1400798818
1.1404547599
1.1409401962
1.1414735875
1.1419993948
1.1424740625
1.1428648748
1.1431474693
1.1433038513
1.1433192857
1.1431804810
1.1428748960
1.1423891068
1.1417084541
1.1408177363
1.1397016753
1.1383475210
1.1367496621
1.1349157321
1.1328760377
1.1306947612
1.1284807299
1.1263946835
1.1246446854
1.1234624108
1.1230548490
1.1235338834
1.1248475995
1.1267461376
1.1288109227
1.1305537650
1.1315487888
1.1242546027
1.3123465363
1.3116086528
1.3117077130
1.3118966042
1.3121569537
1.3124621657
1.3127788732
1.3130693030
1.3132950664
1.3134214788
1.3134220128
1.3132822975
1.3130023714
1.3125970502
1.3120943927
1.3115326258
1.3109566668
1.3104144338
1.3099533422
1.3096167313
1.3094387853
1.3137349249
1.1367806557
1.1368985253
1.1371436519
1.1375868222
1.1381552739
1.1387727882
1.1393732740
1.1399058212
1.1403328329
1.1406267247
1.1407673460
1.1407384345
1.1405255570
1.1401153484
1.1394939595
1.1386470639
1.1375612126
1.1362253669
1.1346351064
1.1327993040
1.1307486739
1.1285475133
1.1263059532
1.1241890032
1.1224170168
1.1212473808
1.1209310558
1.1216436827
1.1234051366
1.1260236032
1.1290980803
1.1320921181
1.1344581680
1.1357605453
1.1298419083
1.3147567594
1.3137462269
1.3138553042
1.3140608241
1.3143378778
1.3146506481
1.3149546426
1.3152001909
1.3153375449
1.3153227325
1.3151235556
1.3147248105
1.3141313792
1.3133687572
1.3124809154
1.3115260871
1.3105716539
1.3096887494
1.3089472021
1.3084102780
1.3081277434
1.3121087751
1.1327322314
1.1330532583
1.1333467899
1.1338738465
1.1345437477
1.1352639743
1.1359561745
1.1365610352
1.1370354176
1.1373481294
1.1374767623
1.1374037510
1.1371141422
1.1365948695
1.1358334150
1.1348183575
1.1335416075
1.1320012248
1.1302073690
1.1281909548
1.1260141090
1.1237829112
1.1216582840
1.1198596603
1.1186541400
1.1183207429
1.1190873784
1.1210491843
1.1240948741
1.1278837574
1.1318961542
1.1355439915
1.1382969524
1.1397718237
1.1350872805
1.3175166233
1.3162424165
1.3163544730
1.3165631273
1.3168380682
1.3171358591
1.3174028048
1.3175793485
1.3176061677
1.3174312248
1.3170170322
1.3163469704
1.3154293382
1.3142984182
1.3130122807
1.3116480179
1.3102954410
1.3090501858
1.3080070312
1.3072525700
1.3068556483
1.3105041996
1.1276626627
1.1282094519
1.1285622331
1.1291913009
1.1299842286
1.1308296808
1.1316357067
1.1323338667
1.1328750335
1.1332241714
1.1333566741
1.1332541364
1.1329020622
1.1322893001
1.1314070424
1.1302500499
1.1288198865
1.1271290574
1.1252085471
1.1231179579
1.1209568147
1.1188764285
1.1170866424
1.1158506330
1.1154595026
1.1161782693
1.1181679516
1.1214035516
1.1256249288
1.1303603437
1.1350231501
1.1390408359
1.1419598712
1.1434881816
1.1398568594
1.3206051820
1.3190849452
1.3191924968
1.3193899368
1.3196427713
1.3199017005
1.3201059918
1.3201885607
1.3200827459
1.3197301868
1.3190890059
1.3181409873
1.3168965777
1.3153967535
1.3137112671
1.3119339591
1.3101758678
1.3085572607
1.3071995118
1.3062155315
1.3056968675
1.3090023581
1.1214934371
1.1222692575
1.1226941779
1.1234466061
1.1243883094
1.1253870786
1.1263366567
1.1271592191
1.1277994484
1.1282183332
1.1283891957
1.1282933513
1.1279178924
1.1272553996
1.1263033465
1.1250660283
1.1235587512
1.1218130910
1.1198855641
1.1178684333
1.1159005287
1.1141762767
1.1129458395
1.1124985395
1.1131215788
1.1150299615
1.1182818269
1.1227101302
1.1279121972
1.1333234938
1.1383479204
1.1424832805
1.1453887059
1.1468787635
1.1441093044
1.3239925566
1.3222505396
1.3223462709
1.3225184650
1.3227296356
1.3229263580
1.3230430528
1.3230075685
1.3227483536
1.3222028041
1.3213259896
1.3200983812
1.3185316656
1.3166715242
1.3145966897
1.3124149111
1.3102561392
1.3082641120
1.3065872886
1.3053672468
1.3047219513
1.3076798566
1.1142145607
1.1151942239
1.1157068107
1.1166079883
1.1177295345
1.1189171005
1.1200502856
1.1210421366
1.1218310873
1.1223739254
1.1226418281
1.1226161544
1.1222864471
1.1216504917
1.1207141083
1.1194936766
1.1180210749
1.1163496795
1.1145635563
1.1127880560
1.1111989236
1.1100269112
1.1095495763
1.1100620181
1.1118202107
1.1149593311
1.1194122149
1.1248675900
1.1308060836
1.1366182557
1.1417497795
1.1458043382
1.1485669739
1.1499568176
1.1478676711
1.3276406210
1.3257059446
1.3257831650
1.3259172800
1.3260689048
1.3261821044
1.3261885186
1.3260133070
1.3255824838
1.3248314272
1.3237137954
1.3222094632
1.3203309104
1.3181268604
1.3156823261
1.3131156545
1.3105724178
1.3082173183
1.3062250392
1.3047673695
1.3039926078
1.3066038761
1.1059059982
1.1070300857
1.1076492279
1.1087293715
1.1100680995
1.1114888025
1.1128581119
1.1140805914
1.1150882076
1.1158328365
1.1162827958
1.1164190856
1.1162337413
1.1157302577
1.1149236571
1.1138434097
1.1125388443
1.1110854755
1.1095941672
1.1082208264
1.1071729132
1.1067085474
1.1071188774
1.1086857010
1.1116111739
1.1159304414
1.1214433530
1.1277089169
1.1341283432
1.1400943887
1.1451321353
1.1489671124
1.1515062711
1.1527604821
1.1511916336
1.3315049607
1.3294102660
1.3294632114
1.3295482040
1.3296249311
1.3296363848
1.3295132800
1.3291802568
1.3285632015
1.3275976725
1.3262377043
1.3244636253
1.3222887196
1.3197635301
1.3169768680
1.3140541451
1.3111524678
1.3084536788
1.3061563462
1.3044631295
1.3035570963
1.3058278742
1.0967373617
1.0979138405
1.0986626238
1.0999572891
1.1015571352
1.1032646976
1.1049358311
1.1064672921
1.1077836774
1.1088302004
1.1095704425
1.1099834443
1.1100625312
1.1098160611
1.1092676016
1.1084590225
1.1074561392
1.1063550765
1.1052910524
1.1044467432
1.1040555869
1.1043945671
1.1057563590
1.1083939324
1.1124393372
1.1178174050
1.1242000050
1.1310420851
1.1377059434
1.1436256382
1.1484275778
1.1519591732
1.1542345640
1.1553386278
1.1541565581
1.3355356017
1.3333161131
1.3333401169
1.3333670764
1.3333565939
1.3332518326
1.3329841869
1.3324796665
1.3316660755
1.3304811791
1.3288811628
1.3268480457
1.3243962980
1.3215775099
1.3184821473
1.3152391364
1.3120124356
1.3089959713
1.3064083166
1.3044827783
1.3034427674
1.3053844902
1.0869388939
1.0880542835
1.0889612938
1.0905119002
1.0924233525
1.0944806866
1.0965319927
1.0984663095
1.1001985670
1.1016639234
1.1028177710
1.1036341849
1.1041053210
1.1042423785
1.1040756708
1.1036576897
1.1030688415
1.1024237162
1.1018793288
1.1016418639
1.1019662217
1.1031416485
1.1054529365
1.1091125672
1.1141721610
1.1204444468
1.1274875519
1.1346833578
1.1413926540
1.1471185709
1.1515966886
1.1547856382
1.1567870404
1.1577412185
1.1568392266
1.3396775405
1.3373704325
1.3373620086
1.3373243282
1.3372176307
1.3369863019
1.3365637573
1.3358789474
1.3348633100
1.3334585610
1.3316246526
1.3293465545
1.3266405298
1.3235588153
1.3201917562
1.3166683662
1.3131543692
1.3098495949
1.3069871276
1.3048298143
1.3036490864
1.3052789788
1.0767435064
1.0776820304
1.0787836370
1.0806383378
1.0829184785
1.0853975316
1.0879192886
1.0903637100
1.0926315315
1.0946422805
1.0963379719
1.0976835163
1.0986667124
1.0992991737
1.0996159788
1.0996784915
1.0995801028
1.0994523782
1.0994726620
1.0998688842
1.1009146770
1.1029069100
1.1061153440
1.1107034944
1.1166371777
1.1236218016
1.1311216350
1.1384769757
1.1450776304
1.1505120398
1.1546222427
1.1574617189
1.1591990018
1.1600128611
1.1593085814
1.3438720797
1.3415159612
1.3414728295
1.3413662615
1.3411577422
1.3407937465
1.3402107881
1.3393419967
1.3381237854
1.3365032022
1.3344452947
1.3319391042
1.3290033446
1.3256907349
1.3220900540
1.3183271864
1.3145643028
1.3109999280
1.3078743729
1.3054778247
1.3041407775
1.3054826457
1.0663129393
1.0669779104
1.0683225448
1.0705381832
1.0732519310
1.0762353038
1.0793311307
1.0824062980
1.0853396028
1.0880267321
1.0903895332
1.0923789789
1.0939755504
1.0951895741
1.0960599146
1.0966562104
1.0970844953
1.0974932071
1.0980800417
1.0990944036
1.1008273064
1.1035798653
1.1076011423
1.1129996607
1.1196540670
1.1271719419
1.1349460528
1.1423036519
1.1486857281
1.1537724549
1.1575029251
1.1600072566
1.1615019873
1.1621900364
1.1616216683
1.3480568231
1.3456911657
1.3456122379
1.3454348673
1.3451222821
1.3446237302
1.3438796376
1.3428282092
1.3414117719
1.3395836602
1.3373149527
1.3345995881
1.3314592583
1.3279470725
1.3241490378
1.3201849498
1.3162080299
1.3124073294
1.3090209229
1.3063623184
1.3048368908
1.3059219637
1.0556722768
1.0560026433
1.0576595721
1.0603068746
1.0635322140
1.0671199138
1.0709138034
1.0747592333
1.0785008684
1.0819994146
1.0851486665
1.0878813332
1.0901690763
1.0920211729
1.0934813458
1.0946288576
1.0955837709
1.0965127841
1.0976351961
1.0992225361
1.1015824767
1.1050175296
1.1097513283
1.1158334226
1.1230571917
1.1309448935
1.1388400672
1.1460805069
1.1521723830
1.1568867299
1.1602469365
1.1624422660
1.1637212701
1.1642997475
1.1638219889
1.3521655601
1.3498298509
1.3497151919
1.3494673562
1.3490517000
1.3484207435
1.3475193722
1.3462914110
1.3446856130
1.3426620747
1.3401983547
1.3372936818
1.3339729472
1.3302894548
1.3263253643
1.3221916934
1.3180273852
1.3140029162
1.3103417392
1.3073730105
1.3055984839
1.3064660978
1.0446710068
1.0446488625
1.0467254774
1.0499000003
1.0537403270
1.0580648336
1.0627160254
1.0675018617
1.0722148982
1.0766670798
1.0807164599
1.0842752169
1.0873076249
1.0898252078
1.0918803944
1.0935657034
1.0950183229
1.0964257660
1.0980308555
1.1001281356
1.1030412085
1.1070712273
1.1124124195
1.1190532570
1.1267063441
1.1348225932
1.1427166564
1.1497547255
1.1555151643
1.1598542341
1.1628659420
1.1647833247
1.1658742480
1.1663590004
1.1659392395
1.3561288981
1.3538613429
1.3537120954
1.3533962312
1.3528815014
1.3521240077
1.3510733713
1.3496792247
1.3478968157
1.3456929622
1.3430515935
1.3399770722
1.3364972507
1.3326651600
1.3285580364
1.3242756904
1.3199376571
1.3156858103
1.3117124471
1.3083471127
1.3062136666
1.3069114738
1.0329723920
1.0326217762
1.0352971233
1.0391404996
1.0437494652
1.0490029978
1.0547291642
1.0606712094
1.0665455483
1.0721011991
1.0771560070
1.0816040309
1.0854082727
1.0885897532
1.0912164852
1.0933999950
1.0952989759
1.0971249044
1.0991460940
1.1016806693
1.1050670277
1.1096021466
1.1154476270
1.1225304796
1.1304888829
1.1387165179
1.1465164077
1.1532953759
1.1587055868
1.1626802484
1.1653709328
1.1670417591
1.1679703556
1.1683756146
1.1679907023
1.3598740261
1.3577096900
1.3575279360
1.3571482994
1.3565410714
1.3556660529
1.3544776070
1.3529310081
1.3509876248
1.3486204258
1.3458190051
1.3425920759
1.3389696250
1.3350035044
1.3307647771
1.3263397747
1.3218237520
1.3173190138
1.3129642976
1.3090591822
1.3063710391
1.3069544409
1.0200461672
1.0194269856
1.0230200312
1.0277653169
1.0333982558
1.0398794263
1.0469863693
1.0543561955
1.0616036706
1.0684073182
1.0745495706
1.0799173277
1.0844849124
1.0882943876
1.0914388011
1.0940557601
1.0963302640
1.0985007036
1.1008622406
1.1037563509
1.1075344424
1.1124863885
1.1187386924
1.1261579640
1.1343153705
1.1425605526
1.1501985531
1.1566840994
1.1617409399
1.1653698671
1.1677684076
1.1692217801
1.1700105609
1.1703484055
1.1699821058
1.3633246075
1.3612929735
1.3610814855
1.3606436514
1.3599523238
1.3589709329
1.3576583322
1.3559749438
1.3538874770
1.3513739943
1.3484284904
1.3450626336
1.3413070968
1.3372110992
1.3328379131
1.3282580350
1.3235376546
1.3187274535
1.3138821111
1.3092123154
1.3056171678
1.3061479106
1.0050892145
1.0042907378
1.0094164991
1.0155021529
1.0226264231
1.0308130662
1.0397184995
1.0488289344
1.0576483401
1.0657988451
1.0730507395
1.0793073341
1.0845740276
1.0889286997
1.0924997484
1.0954575269
1.0980170996
1.1004454065
1.1030644247
1.1062374816
1.1103263335
1.1156106391
1.1221799767
1.1298426724
1.1381106196
1.1463009692
1.1537307831
1.1599059017
1.1646169621
1.1679229086
1.1700573630
1.1713190958
1.1719870504
1.1722673947
1.1719084707
1.3664017503
1.3645238993
1.3642857058
1.3637956876
1.3630291387
1.3619528404
1.3605296191
1.3587242356
1.3565076002
1.3538614157
1.3507824027
1.3472833827
1.3433939038
1.3391588402
1.3346319335
1.3298654986
1.3248918325
1.3196964211
1.3142083123
1.3084382481
1.3032846471
1.3038287588
0.9865977623
0.9857350229
0.9937814665
1.0022004839
1.0117294465
1.0223625535
1.0335699410
1.0446949264
1.0551795347
1.0646476776
1.0729075896
1.0799156863
1.0857324172
1.0904855684
1.0943463738
1.0975211845
1.1002556358
1.1028440261
1.1056327774
1.1090037805
1.1133253678
1.1188635949
1.1256697806
1.1334967478
1.1418045952
1.1498875151
1.1570812143
1.1629427097
1.1673233795
1.1703314035
1.1722283885
1.1733211630
1.1738842007
1.1741151226
1.1737559664
1.3690267776
1.3673125269
1.3670502985
1.3665132741
1.3656788357
1.3645164977
1.3629921017
1.3610734128
1.3587338028
1.3559565134
1.3527386904
1.3490920229
1.3450430197
1.3406311944
1.3359010393
1.3308881970
1.3255918803
1.3199237218
1.3136364497
1.3063377026
1.2983958635
1.2990220013
0.9603709123
0.9595884319
0.9748858264
0.9882958711
1.0019579567
1.0159935855
1.0298849666
1.0430333852
1.0549830831
1.0654754529
1.0744283579
1.0818903476
1.0879943813
1.0929228126
1.0968878953
1.1001273451
1.1029117307
1.1055569517
1.1084282280
1.1119205337
1.1164038072
1.1221268634
1.1291018809
1.1370293943
1.1453246096
1.1532662159
1.1602122808
1.1657687444
1.1698408565
1.1725779240
1.1742630280
1.1752072236
1.1756790024
1.1758672438
1.1755029309
1.3711279453
1.3695734807
1.3692890937
1.3687084497
1.3678102519
1.3665654799
1.3649410981
1.3629052324
1.3604301419
1.3574959205
1.3540942306
1.3502284226
1.3459137601
1.3411765061
1.3360475157
1.3305521660
1.3246879992
1.3183692593
1.3112933478
1.3026234192
1.2905940187
1.2913753125
0.9103003535
0.9097947909
0.9512520831
0.9766700539
0.9969541036
1.0148602011
1.0310082105
1.0454176923
1.0580162224
1.0687924377
1.0778207233
1.0852464369
1.0912605511
1.0960790565
1.0999345214
1.1030782371
1.1057913471
1.1084000218
1.1112792300
1.1148296991
1.1194173256
1.1252703085
1.1323616090
1.1403432504
1.1485919184
1.1563764223
1.1630785677
1.1683493535
1.1721408014
1.1746361491
1.1761348301
1.1769496116
1.1773424736
1.1774939739
1.1771216121
1.3726508053
1.3712375300
1.3709326710
1.3703112469
1.3693521571
1.3680259824
1.3662979575
1.3641323313
1.3614938978
1.3583498491
1.3546709105
1.3504265284
1.3455767275
1.3400563126
1.3337391656
1.3263716299
1.3174372400
1.3058611086
1.2893351723
1.2626111282
1.2127014542
1.1035147072
0.9475150082
0.9842971062
0.9833936836
0.9825238610
0.9936096750
1.0041507563
1.0161493294
1.0290221542
1.0418853743
1.0540357207
1.0650246150
1.0746290733
1.0827921039
1.0895724863
1.0951012479
1.0995518121
1.1031277988
1.1060622438
1.1086262049
1.1111424293
1.1139861982
1.1175573238
1.1222132939
1.1281600065
1.1353328753
1.1433403007
1.1515266616
1.1591551240
1.1656308663
1.1706450317
1.1741893926
1.1764748201
1.1778131381
1.1785173280
1.1788430438
1.1789633617
1.1785816256
1.3735659069
1.3722610662
1.3719390785
1.3712832203
1.3702719188
1.3688743951
1.3670529709
1.3647667724
1.3619721251
1.3586231825
1.3546717783
1.3500603889
1.3447113954
1.3385088495
1.3312603696
1.3226331710
1.3120385989
1.2984040020
1.2797161845
1.2520213357
1.2070745333
1.1275844756
0.9450535562
0.9822441712
0.9839417959
0.9886316316
0.9998655601
1.0116622245
1.0241021757
1.0367306328
1.0489764965
1.0603642908
1.0705838314
1.0794906455
1.0870578193
1.0933478377
1.0984821874
1.1026197955
1.1059505659
1.1086973213
1.1111251087
1.1135549542
1.1163627537
1.1199471668
1.1246574653
1.1306790820
1.1379142519
1.1459342087
1.1540573609
1.1615444231
1.1678222619
1.1726165446
1.1759519566
1.1780614741
1.1792662501
1.1798787207
1.1801488821
1.1802434320
1.1798522190
1.3738626305
1.3726220546
1.3722884757
1.3716091308
1.3705617695
1.3691141011
1.3672256421
1.3648510692
1.3619399748
1.3584370226
1.3542816702
1.3494007666
1.3436981072
1.3370381219
1.3292117185
1.3198828942
1.3084991819
1.2941224892
1.2751195629
1.2485540502
1.2089416662
1.1474663538
1.0271249968
1.0206230860
1.0096774454
1.0073340581
1.0129367469
1.0219355310
1.0327230292
1.0441524189
1.0554009108
1.0659180849
1.0753794135
1.0836337896
1.0906581691
1.0965099615
1.1012967848
1.1051620056
1.1082817233
1.1108685495
1.1131813817
1.1155390538
1.1183173829
1.1219134497
1.1266689509
1.1327515990
1.1400358084
1.1480625645
1.1561301588
1.1634988150
1.1696141384
1.1742300492
1.1773974026
1.1793662891
1.1804647436
1.1810043746
1.1812304739
1.1813045966
1.1809047541
1.3735381565
1.3723109366
1.3719726115
1.3712834250
1.3702204027
1.3687498444
1.3668289031
1.3644088171
1.3614343795
1.3578440353
1.3535699491
1.3485309031
1.3426228600
1.3357051080
1.3275701875
1.3178993691
1.3061920774
1.2916356734
1.2728847721
1.2476686620
1.2120762472
1.1608633515
1.0746715216
1.0487522971
1.0304149240
1.0230060589
1.0244379335
1.0308950581
1.0400515340
1.0503140776
1.0606418901
1.0703927508
1.0792072964
1.0869201910
1.0934940240
1.0989835909
1.1034851883
1.1071284610
1.1100774522
1.1125357593
1.1147567145
1.1170568975
1.1198116397
1.1234163840
1.1282064932
1.1343355375
1.1416562660
1.1496866396
1.1577102076
1.1649876215
1.1709792668
1.1754605444
1.1785017956
1.1803656033
1.1813848391
1.1818702878
1.1820636351
1.1821225769
1.1817156632
1.3725947201
1.3713289565
1.3709928190
1.3703076086
1.3692495576
1.3677836055
1.3658648597
1.3634418439
1.3604558965
1.3568413858
1.3525262061
1.3474250895
1.3414310776
1.3344035225
1.3261408615
1.3163418487
1.3045466594
1.2900295602
1.2716283622
1.2474681349
1.2145203058
1.1692191228
1.1012837696
1.0671930287
1.0446026974
1.0338612184
1.0325410007
1.0371801461
1.0451373837
1.0545523488
1.0642290701
1.0734500612
1.0818230036
1.0891678099
1.0954372634
1.1006791112
1.1049851640
1.1084757901
1.1113068655
1.1136758695
1.1158323981
1.1180915856
1.1208285160
1.1244375408
1.1292496444
1.1354086629
1.1427525804
1.1507838732
1.1587764237
1.1659915153
1.1718996790
1.1762907183
1.1792478524
1.1810417984
1.1820084809
1.1824580310
1.1826296906
1.1826785813
1.1822666639
1.3710440675
1.3696927004
1.3693650040
1.3686962076
1.3676616329
1.3662248136
1.3643389573
1.3619502853
1.3589974935
1.3554121437
1.3511195007
1.3460321773
1.3400421694
1.3330098690
1.3247382904
1.3149370971
1.3031692166
1.2887540759
1.2706197908
1.2470787501
1.2155083659
1.1730388072
1.1132664344
1.0763302724
1.0518524772
1.0394779346
1.0367837872
1.0404715822
1.0477877752
1.0567511636
1.0660868208
1.0750352643
1.0831839942
1.0903431558
1.0964601397
1.1015768171
1.1057833731
1.1091953977
1.1119646122
1.1142854679
1.1164058255
1.1186403024