<VTKFile type="UnstructuredGrid" version="0.1">
	<UnstructuredGrid>
		<Piece NumberOfPoints="13548" NumberOfCells="3387">
			<CellData>
				<DataArray type="Int32" Name="ghost" NumberOfComponents="1" Format="ascii">
1
1
1
1
1
1
1
1
1
1
1
1
1
1
1
1
1
1
1
1
1
1
1
1
1
1
1
1
1
1
1
1
1
1
1
1
1
1
1
1
1
1
1
1
1
1
1
1
1
1
1
1
1
1
1
1
1
1
0
0
0
0
0
0
0
0
0
0
0
0
0
0
0
0
0
0
0
0
1
1
0
0
0
0
0
0
0
0
0
0
0
0
0
0
0
0
0
0
0
0
0
0
0
0
0
0
0
0
0
0
0
0
0
1
1
0
0
0
0
0
0
0
0
0
0
0
0
0
0
0
0
0
0
0
0
1
1
0
0
0
0
0
0
0
0
0
0
0
0
0
0
0
0
0
0
0
0
0
0
0
0
0
0
0
0
0
0
0
0
0
1
1
0
0
0
0
0
0
0
0
0
0
0
0
0
0
0
0
0
0
0
0
1
1
0
0
0
0
0
0
0
0
0
0
0
0
0
0
0
0
0
0
0
0
0
0
0
0
0
0
0
0
0
0
0
0
0
1
1
0
0
0
0
0
0
0
0
0
0
0
0
0
0
0
0
0
0
0
0
1
1
0
0
0
0
0
0
0
0
0
0
0
0
0
0
0
0
0
0
0
0
0
0
0
0
0
0
0
0
0
0
0
0
0
1
1
0
0
0
0
0
0
0
0
0
0
0
0
0
0
0
0
0
0
0
0
1
1
0
0
0
0
0
0
0
0
0
0
0
0
0
0
0
0
0
0
0
0
0
0
0
0
0
0
0
0
0
0
0
0
0
1
1
0
0
0
0
0
0
0
0
0
0
0
0
0
0
0
0
0
0
0
0
1
1
0
0
0
0
0
0
0
0
0
0
0
0
0
0
0
0
0
0
0
0
0
0
0
0
0
0
0
0
0
0
0
0
0
1
1
0
0
0
0
0
0
0
0
0
0
0
0
0
0
0
0
0
0
0
0
1
1
0
0
0
0
0
0
0
0
0
0
0
0
0
0
0
0
0
0
0
0
0
0
0
0
0
0
0
0
0
0
0
0
0
1
1
0
0
0
0
0
0
0
0
0
0
0
0
0
0
0
0
0
0
0
0
1
1
0
0
0
0
0
0
0
0
0
0
0
0
0
0
0
0
0
0
0
0
0
0
0
0
0
0
0
0
0
0
0
0
0
1
1
0
0
0
0
0
0
0
0
0
0
0
0
0
0
0
0
0
0
0
0
1
1
0
0
0
0
0
0
0
0
0
0
0
0
0
0
0
0
0
0
0
0
0
0
0
0
0
0
0
0
0
0
0
0
0
1
1
0
0
0
0
0
0
0
0
0
0
0
0
0
0
0
0
0
0
0
0
1
1
0
0
0
0
0
0
0
0
0
0
0
0
0
0
0
0
0
0
0
0
0
0
0
0
0
0
0
0
0
0
0
0
0
1
1
0
0
0
0
0
0
0
0
0
0
0
0
0
0
0
0
0
0
0
0
1
1
0
0
0
0
0
0
0
0
0
0
0
0
0
0
0
0
0
0
0
0
0
0
0
0
0
0
0
0
0
0
0
0
0
1
1
0
0
0
0
0
0
0
0
0
0
0
0
0
0
0
0
0
0
0
0
1
1
0
0
0
0
0
0
0
0
0
0
0
0
0
0
0
0
0
0
0
0
0
0
0
0
0
0
0
0
0
0
0
0
0
1
1
0
0
0
0
0
0
0
0
0
0
0
0
0
0
0
0
0
0
0
0
1
1
0
0
0
0
0
0
0
0
0
0
0
0
0
0
0
0
0
0
0
0
0
0
0
0
0
0
0
0
0
0
0
0
0
1
1
0
0
0
0
0
0
0
0
0
0
0
0
0
0
0
0
0
0
0
0
1
1
0
0
0
0
0
0
0
0
0
0
0
0
0
0
0
0
0
0
0
0
0
0
0
0
0
0
0
0
0
0
0
0
0
1
1
0
0
0
0
0
0
0
0
0
0
0
0
0
0
0
0
0
0
0
0
1
1
0
0
0
0
0
0
0
0
0
0
0
0
0
0
0
0
0
0
0
0
0
0
0
0
0
0
0
0
0
0
0
0
0
1
1
0
0
0
0
0
0
0
0
0
0
0
0
0
0
0
0
0
0
0
0
1
1
0
0
0
0
0
0
0
0
0
0
0
0
0
0
0
0
0
0
0
0
0
0
0
0
0
0
0
0
0
0
0
0
0
1
1
0
0
0
0
0
0
0
0
0
0
0
0
0
0
0
0
0
0
0
0
1
1
0
0
0
0
0
0
0
0
0
0
0
0
0
0
0
0
0
0
0
0
0
0
0
0
0
0
0
0
0
0
0
0
0
1
1
0
0
0
0
0
0
0
0
0
0
0
0
0
0
0
0
0
0
0
0
1
1
0
0
0
0
0
0
0
0
0
0
0
0
0
0
0
0
0
0
0
0
0
0
0
0
0
0
0
0
0
0
0
0
0
1
1
0
0
0
0
0
0
0
0
0
0
0
0
0
0
0
0
0
0
0
0
1
1
0
0
0
0
0
0
0
0
0
0
0
0
0
0
0
0
0
0
0
0
0
0
0
0
0
0
0
0
0
0
0
0
0
1
1
0
0
0
0
0
0
0
0
0
0
0
0
0
0
0
0
0
0
0
0
1
1
0
0
0
0
0
0
0
0
0
0
0
0
0
0
0
0
0
0
0
0
0
0
0
0
0
0
0
0
0
0
0
0
0
1
1
0
0
0
0
0
0
0
0
0
0
0
0
0
0
0
0
0
0
0
0
1
1
0
0
0
0
0
0
0
0
0
0
0
0
0
0
0
0
0
0
0
0
0
0
0
0
0
0
0
0
0
0
0
0
0
1
1
0
0
0
0
0
0
0
0
0
0
0
0
0
0
0
0
0
0
0
0
1
1
0
0
0
0
0
0
0
0
0
0
0
0
0
0
0
0
0
0
0
0
0
0
0
0
0
0
0
0
0
0
0
0
0
1
1
0
0
0
0
0
0
0
0
0
0
0
0
0
0
0
0
0
0
0
0
1
1
0
0
0
0
0
0
0
0
0
0
0
0
0
0
0
0
0
0
0
0
0
0
0
0
0
0
0
0
0
0
0
0
0
1
1
0
0
0
0
0
0
0
0
0
0
0
0
0
0
0
0
0
0
0
0
1
1
0
0
0
0
0
0
0
0
0
0
0
0
0
0
0
0
0
0
0
0
0
0
0
0
0
0
0
0
0
0
0
0
0
1
1
0
0
0
0
0
0
0
0
0
0
0
0
0
0
0
0
0
0
0
0
0
1
1
0
0
0
0
0
0
0
0
0
0
0
0
0
0
0
0
0
0
0
0
0
0
0
0
0
0
0
0
0
0
0
0
0
0
1
1
0
0
0
0
0
0
0
0
0
0
0
0
0
0
0
0
0
0
0
0
0
0
0
0
0
0
0
0
0
0
0
0
0
0
0
0
0
0
0
0
0
0
0
0
0
0
0
0
0
0
0
0
0
0
0
0
0
1
1
0
0
0
0
0
0
0
0
0
0
0
0
0
0
0
0
0
0
0
0
0
0
0
0
0
0
0
0
0
0
0
0
0
0
0
0
0
0
0
0
0
0
0
0
0
0
0
0
0
0
0
0
0
0
0
0
0
1
1
0
0
0
0
0
0
0
0
0
0
0
0
0
0
0
0
0
0
0
0
0
0
0
0
0
0
0
0
0
0
0
0
0
0
0
0
0
0
0
0
0
0
0
0
0
0
0
0
0
0
0
0
0
0
0
0
0
1
1
0
0
0
0
0
0
0
0
0
0
0
0
0
0
0
0
0
0
0
0
0
0
0
0
0
0
0
0
0
0
0
0
0
0
0
0
0
0
0
0
0
0
0
0
0
0
0
0
0
0
0
0
0
0
0
0
0
1
1
0
0
0
0
0
0
0
0
0
0
0
0
0
0
0
0
0
0
0
0
0
0
0
0
0
0
0
0
0
0
0
0
0
0
0
0
0
0
0
0
0
0
0
0
0
0
0
0
0
0
0
0
0
0
0
0
0
1
1
0
0
0
0
0
0
0
0
0
0
0
0
0
0
0
0
0
0
0
0
0
0
0
0
0
0
0
0
0
0
0
0
0
0
0
0
0
0
0
0
0
0
0
0
0
0
0
0
0
0
0
0
0
0
0
0
0
1
1
0
0
0
0
0
0
0
0
0
0
0
0
0
0
0
0
0
0
0
0
0
0
0
0
0
0
0
0
0
0
0
0
0
0
0
0
0
0
0
0
0
0
0
0
0
0
0
0
0
0
0
0
0
0
0
0
0
1
1
0
0
0
0
0
0
0
0
0
0
0
0
0
0
0
0
0
0
0
0
0
0
0
0
0
0
0
0
0
0
0
0
0
0
0
0
0
0
0
0
0
0
0
0
0
0
0
0
0
0
0
0
0
0
0
0
0
1
1
0
0
0
0
0
0
0
0
0
0
0
0
0
0
0
0
0
0
0
0
0
0
0
0
0
0
0
0
0
0
0
0
0
0
0
0
0
0
0
0
0
0
0
0
0
0
0
0
0
0
0
0
0
0
0
0
0
1
1
0
0
0
0
0
0
0
0
0
0
0
0
0
0
0
0
0
0
0
0
0
0
0
0
0
0
0
0
0
0
0
0
0
0
0
0
0
0
0
0
0
0
0
0
0
0
0
0
0
0
0
0
0
0
0
0
0
1
1
0
0
0
0
0
0
0
0
0
0
0
0
0
0
0
0
0
0
0
0
0
1
1
0
0
0
0
0
0
0
0
0
0
0
0
0
0
0
0
0
0
0
0
0
0
0
0
0
0
0
0
0
0
0
0
0
0
1
1
0
0
0
0
0
0
0
0
0
0
0
0
0
0
0
0
0
0
0
0
1
1
0
0
0
0
0
0
0
0
0
0
0
0
0
0
0
0
0
0
0
0
0
0
0
0
0
0
0
0
0
0
0
0
0
1
1
0
0
0
0
0
0
0
0
0
0
0
0
0
0
0
0
0
0
0
0
1
1
0
0
0
0
0
0
0
0
0
0
0
0
0
0
0
0
0
0
0
0
0
0
0
0
0
0
0
0
0
0
0
0
0
1
1
0
0
0
0
0
0
0
0
0
0
0
0
0
0
0
0
0
0
0
0
1
1
0
0
0
0
0
0
0
0
0
0
0
0
0
0
0
0
0
0
0
0
0
0
0
0
0
0
0
0
0
0
0
0
0
1
1
0
0
0
0
0
0
0
0
0
0
0
0
0
0
0
0
0
0
0
0
1
1
0
0
0
0
0
0
0
0
0
0
0
0
0
0
0
0
0
0
0
0
0
0
0
0
0
0
0
0
0
0
0
0
0
1
1
0
0
0
0
0
0
0
0
0
0
0
0
0
0
0
0
0
0
0
0
1
1
0
0
0
0
0
0
0
0
0
0
0
0
0
0
0
0
0
0
0
0
0
0
0
0
0
0
0
0
0
0
0
0
0
1
1
0
0
0
0
0
0
0
0
0
0
0
0
0
0
0
0
0
0
0
0
1
1
0
0
0
0
0
0
0
0
0
0
0
0
0
0
0
0
0
0
0
0
0
0
0
0
0
0
0
0
0
0
0
0
0
1
1
0
0
0
0
0
0
0
0
0
0
0
0
0
0
0
0
0
0
0
0
1
1
0
0
0
0
0
0
0
0
0
0
0
0
0
0
0
0
0
0
0
0
0
0
0
0
0
0
0
0
0
0
0
0
0
1
1
0
0
0
0
0
0
0
0
0
0
0
0
0
0
0
0
0
0
0
0
1
1
0
0
0
0
0
0
0
0
0
0
0
0
0
0
0
0
0
0
0
0
0
0
0
0
0
0
0
0
0
0
0
0
0
1
1
0
0
0
0
0
0
0
0
0
0
0
0
0
0
0
0
0
0
0
0
1
1
0
0
0
0
0
0
0
0
0
0
0
0
0
0
0
0
0
0
0
0
0
0
0
0
0
0
0
0
0
0
0
0
0
1
1
0
0
0
0
0
0
0
0
0
0
0
0
0
0
0
0
0
0
0
0
1
1
0
0
0
0
0
0
0
0
0
0
0
0
0
0
0
0
0
0
0
0
0
0
0
0
0
0
0
0
0
0
0
0
0
1
1
0
0
0
0
0
0
0
0
0
0
0
0
0
0
0
0
0
0
0
0
1
1
0
0
0
0
0
0
0
0
0
0
0
0
0
0
0
0
0
0
0
0
0
0
0
0
0
0
0
0
0
0
0
0
0
1
1
0
0
0
0
0
0
0
0
0
0
0
0
0
0
0
0
0
0
0
0
1
1
0
0
0
0
0
0
0
0
0
0
0
0
0
0
0
0
0
0
0
0
0
0
0
0
0
0
0
0
0
0
0
0
0
1
1
0
0
0
0
0
0
0
0
0
0
0
0
0
0
0
0
0
0
0
0
1
1
0
0
0
0
0
0
0
0
0
0
0
0
0
0
0
0
0
0
0
0
0
0
0
0
0
0
0
0
0
0
0
0
0
1
1
0
0
0
0
0
0
0
0
0
0
0
0
0
0
0
0
0
0
0
0
1
1
0
0
0
0
0
0
0
0
0
0
0
0
0
0
0
0
0
0
0
0
0
0
0
0
0
0
0
0
0
0
0
0
0
1
1
0
0
0
0
0
0
0
0
0
0
0
0
0
0
0
0
0
0
0
0
1
1
0
0
0
0
0
0
0
0
0
0
0
0
0
0
0
0
0
0
0
0
0
0
0
0
0
0
0
0
0
0
0
0
0
1
1
0
0
0
0
0
0
0
0
0
0
0
0
0
0
0
0
0
0
0
0
1
1
0
0
0
0
0
0
0
0
0
0
0
0
0
0
0
0
0
0
0
0
0
0
0
0
0
0
0
0
0
0
0
0
0
1
1
0
0
0
0
0
0
0
0
0
0
0
0
0
0
0
0
0
0
0
0
1
1
0
0
0
0
0
0
0
0
0
0
0
0
0
0
0
0
0
0
0
0
0
0
0
0
0
0
0
0
0
0
0
0
0
1
1
0
0
0
0
0
0
0
0
0
0
0
0
0
0
0
0
0
0
0
0
1
1
0
0
0
0
0
0
0
0
0
0
0
0
0
0
0
0
0
0
0
0
0
0
0
0
0
0
0
0
0
0
0
0
0
1
1
0
0
0
0
0
0
0
0
0
0
0
0
0
0
0
0
0
0
0
0
1
1
0
0
0
0
0
0
0
0
0
0
0
0
0
0
0
0
0
0
0
0
0
0
0
0
0
0
0
0
0
0
0
0
0
1
1
0
0
0
0
0
0
0
0
0
0
0
0
0
0
0
0
0
0
0
0
1
1
0
0
0
0
0
0
0
0
0
0
0
0
0
0
0
0
0
0
0
0
0
0
0
0
0
0
0
0
0
0
0
0
0
1
1
0
0
0
0
0
0
0
0
0
0
0
0
0
0
0
0
0
0
0
0
1
1
0
0
0
0
0
0
0
0
0
0
0
0
0
0
0
0
0
0
0
0
0
0
0
0
0
0
0
0
0
0
0
0
0
1
1
1
1
1
1
1
1
1
1
1
1
1
1
1
1
1
1
1
1
1
1
1
1
1
1
1
1
1
1
1
1
1
1
1
1
1
1
1
1
1
1
1
1
1
1
1
1
1
1
1
1
1
1
1
1
1
1
				</DataArray>
				<DataArray type="Float64" Name="h" NumberOfComponents="1" Format="ascii">
1.2075079424
1.2059676160
1.2067405959
1.2082558058
1.2104534643
1.2132472818
1.2165286430
1.2201727973
1.2240457580
1.2280118049
1.2319414832
1.2357184291
1.2392444048
1.2424427486
1.2452596300
1.2476629979
1.2496399278
1.2511928800
1.2523345872
1.2530820422
1.2534510315
1.2534510315
1.1021019550
1.1036412507
1.1059664936
1.1105757204
1.1173626377
1.1261197491
1.1365037287
1.1480267283
1.1600940715
1.1720828781
1.1834402456
1.1937658551
1.2028474170
1.2106490243
1.2172670295
1.2228731732
1.2276657441
1.2318346706
1.2355411057
1.2389104757
1.2420323839
1.2449646517
1.2477400661
1.2503719922
1.2528593453
1.2551914492
1.2573508023
1.2593153515
1.2610611065
1.2625634244
1.2637984753
1.2647453140
1.2653867847
1.2657105832
1.2657105832
1.2059676160
1.2045439166
1.2053269722
1.2068611082
1.2090843676
1.2119079349
1.2152209655
1.2188973415
1.2228029630
1.2268032488
1.2307707931
1.2345915768
1.2381692301
1.2414278019
1.2443125274
1.2467886109
1.2488388035
1.2504601624
1.2516596657
1.2524490496
1.2528400898
1.2534510315
1.1036412507
1.1055727657
1.1080500751
1.1129329981
1.1200563089
1.1291319937
1.1397289689
1.1512857094
1.1631697001
1.1747676388
1.1855786178
1.1952776091
1.2037277696
1.2109516496
1.2170800070
1.2222966958
1.2267960623
1.2307549785
1.2343181813
1.2375950785
1.2406616024
1.2435649479
1.2463301933
1.2489653607
1.2514657131
1.2538179735
1.2560025677
1.2579955391
1.2597709829
1.2613022702
1.2625635662
1.2635320439
1.2641889374
1.2645207565
1.2657105832
1.2059651468
1.2044936130
1.2052643358
1.2067745507
1.2089637539
1.2117452027
1.2150106009
1.2186366466
1.2224920619
1.2264448306
1.2303696192
1.2341538223
1.2377017648
1.2409375005
1.2438056896
1.2462705516
1.2483136384
1.2499307979
1.2511279722
1.2519161496
1.2523066747
1.2529325474
1.1038562265
1.1058071901
1.1082643272
1.1131038612
1.1201570700
1.1291360900
1.1396170905
1.1510534152
1.1628315140
1.1743550066
1.1851323588
1.1948382685
1.2033277481
1.2106112311
1.2168072285
1.2220897077
1.2266464400
1.2306508941
1.2342468848
1.2375445656
1.2406215592
1.2435271398
1.2462884820
1.2489155028
1.2514050571
1.2537451361
1.2559171399
1.2578978459
1.2596619004
1.2611830958
1.2624359253
1.2633978205
1.2640502123
1.2643797457
1.2655799780
1.2059503415
1.2043864319
1.2051331401
1.2065967692
1.2087196315
1.2114189979
1.2145915051
1.2181193035
1.2218765873
1.2257363280
1.2295772430
1.2332895156
1.2367788717
1.2399694242
1.2428047529
1.2452471830
1.2472759374
1.2488845064
1.2500768121
1.2508623974
1.2512517886
1.2519070828
1.1042724999
1.1062617194
1.1086793577
1.1134341603
1.1203508520
1.1291419289
1.1393973386
1.1505986616
1.1621685988
1.1735436114
1.1842510828
1.1939663162
1.2025295212
1.2099280988
1.2162566977
1.2216696138
1.2263412331
1.2304378409
1.2341010249
1.2374421096
1.2405418630
1.2434535636
1.2462084929
1.2488203255
1.2512891030
1.2536053809
1.2557525485
1.2577088964
1.2594502209
1.2609511996
1.2621870209
1.2631356654
1.2637789829
1.2641039050
1.2653239858
1.2059051028
1.2042105332
1.2049227756
1.2063195299
1.2083471176
1.2109285164
1.2139673731
1.2173535908
1.2209691626
1.2246942029
1.2284132765
1.2320206514
1.2354241758
1.2385481633
1.2413347369
1.2437435584
1.2457505249
1.2473457372
1.2485302193
1.2493114695
1.2496988997
1.2503972102
1.1048638126
1.1069088669
1.1092692985
1.1139019243
1.1206226821
1.1291447715
1.1390771389
1.1499402144
1.1612070741
1.1723609197
1.1829577089
1.1926762465
1.2013380693
1.2088990109
1.2154195952
1.2210249857
1.2258689968
1.2301062513
1.2338740598
1.2372847011
1.2404230598
1.2433480210
1.2460968001
1.2486886131
1.2511282829
1.2534102736
1.2555210562
1.2574413059
1.2591486595
1.2606192329
1.2618293542
1.2627579088
1.2633874369
1.2637053426
1.2649528308
1.2058055518
1.2039506421
1.2046196403
1.2059324598
1.2078403935
1.2102734863
1.2131440598
1.2163516189
1.2197878464
1.2233417867
1.2269053954
1.2303781994
1.2336708981
1.2367082541
1.2394307270
1.2417947382
1.2437720502
1.2453485131
1.2465215324
1.2472961188
1.2476804194
1.2484340501
1.1055926143
1.1077093999
1.1099972435
1.1144757643
1.1209509619
1.1291372912
1.1386662677
1.1491042027
1.1599843886
1.1708476472
1.1812878465
1.1909925433
1.1997644485
1.2075227705
1.2142858668
1.2201410770
1.2252141371
1.2296426276
1.2335564742
1.2370677347
1.2402656332
1.2432157467
1.2459627400
1.2485330097
1.2509377307
1.2531766778
1.2552406037
1.2571135710
1.2587758865
1.2602057889
1.2613813089
1.2622826894
1.2628935078
1.2632018766
1.2644816232
1.2056252621
1.2035905065
1.2042094314
1.2054250192
1.2071942302
1.2094551537
1.2121299785
1.2151291439
1.2183554097
1.2217081064
1.2250878124
1.2284003260
1.2315599092
1.2344921281
1.2371357578
1.2394436278
1.2413827850
1.2429341855
1.2440911072
1.2448558471
1.2452353494
1.2460549666
1.1064120793
1.1086144930
1.1108172785
1.1151165329
1.1213083673
1.1291093244
1.1381753524
1.1481218013
1.1585471213
1.1690567338
1.1792906044
1.1889522993
1.1978296154
1.2058044242
1.2128480718
1.2190028864
1.2243590411
1.2290307960
1.2331363191
1.2367850260
1.2400696744
1.2430628724
1.2458177756
1.2483693541
1.2507366306
1.2529261399
1.2549342397
1.2567495471
1.2583560477
1.2597349613
1.2608667403
1.2617335680
1.2623205045
1.2626166737
1.2639301015
1.2053389941
1.2031157872
1.2036798613
1.2047888824
1.2064058978
1.2084776234
1.2109368233
1.2137056728
1.2166988721
1.2198269356
1.2229999509
1.2261307987
1.2291379643
1.2319482537
1.2344989163
1.2367390706
1.2386307195
1.2401495319
1.2412844051
1.2420349767
1.2424073385
1.2433016909
1.1072688499
1.1095686198
1.1116771775
1.1157795082
1.1216630597
1.1290476470
1.1376140237
1.1470261134
1.1569475418
1.1670508184
1.1770279739
1.1866068245
1.1955678298
1.2037595690
1.2111056648
1.2175987364
1.2232866245
1.2282533844
1.2325997610
1.2364286477
1.2398342271
1.2428954728
1.2456743930
1.2482155331
1.2505470981
1.2526838387
1.2546291597
1.2563775825
1.2579179904
1.2592356533
1.2603143549
1.2611389614
1.2616965826
1.2619777387
1.2633222215
1.2049254533
1.2025160128
1.2030224514
1.2040194210
1.2054762120
1.2073483759
1.2095795035
1.2121038048
1.2148482830
1.2177350804
1.2206843219
1.2236165497
1.2264550432
1.2291283276
1.2315724373
1.2337328833
1.2355665517
1.2370437011
1.2381488887
1.2388794924
1.2392414870
1.2402172634
1.1081049405
1.1105115896
1.1125202834
1.1164158469
1.1219793045
1.1289353203
1.1369887338
1.1458486344
1.1552394582
1.1648986514
1.1745730130
1.1840223130
1.1930297238
1.2014190533
1.2090702599
1.2159251435
1.2219841962
1.2272944488
1.2319325160
1.2359893742
1.2395569984
1.2427187899
1.2455450454
1.2480903033
1.2503929930
1.2524774646
1.2543556942
1.2560296366
1.2574945150
1.2587409529
1.2597571923
1.2605317081
1.2610543679
1.2613175675
1.2626858886
1.2043695317
1.2017861805
1.2022340170
1.2031169653
1.2044104830
1.2060788370
1.2080762954
1.2103489578
1.2128360419
1.2154713410
1.2181851925
1.2209061285
1.2235626625
1.2260855160
1.2284099288
1.2304780998
1.2322419644
1.2336665156
1.2347323256
1.2354353218
1.2357825978
1.2368443995
1.1088592839
1.1113801559
1.1132869238
1.1169735393
1.1222176136
1.1287506463
1.1363002457
1.1446152646
1.1534731914
1.1626699928
1.1720059530
1.1812782915
1.1902835658
1.1988326812
1.2067707750
1.2139922357
1.2204482067
1.2261430124
1.2311220286
1.2354576152
1.2392342983
1.2425364656
1.2454409456
1.2480118652
1.2502984402
1.2523358032
1.2541460303
1.2557401758
1.2571214580
1.2582873940
1.2592320420
1.2599486085
1.2604305812
1.2606728153
1.2620526383
1.2036642125
1.2009281881
1.2013180199
1.2020880057
1.2032195017
1.2046851020
1.2064492730
1.2084694930
1.2106967240
1.2130760649
1.2155479131
1.2180488625
1.2205129420
1.2228734982
1.2250654560
1.2270281423
1.2287089071
1.2300678573
1.2310822396
1.2317477989
1.2320746233
1.2332250521
1.1094689993
1.1121093170
1.1139154613
1.1173979205
1.1223344112
1.1284656814
1.1355407066
1.1433417427
1.1516894425
1.1604284876
1.1694072318
1.1784622404
1.1874126030
1.1960696040
1.2042563018
1.2118279640
1.2186885941
1.2247966429
1.2301598115
1.2348244316
1.2388608939
1.2423495135
1.2453704574
1.2479959441
1.2502858193
1.2522867928
1.2540324410
1.2555446361
1.2568364065
1.2579139170
1.2587786192
1.2594297724
1.2598655048
1.2600838234
1.2614571182
1.2028106721
1.1999506402
1.2002843345
1.2009448797
1.2019191154
1.2031873685
1.2047235746
1.2064957948
1.2084659639
1.2105898349
1.2128174248
1.2150932168
1.2173568606
1.2195446709
1.2215917464
1.2234350682
1.2250179030
1.2262960224
1.2272442676
1.2278599636
1.2281588923
1.2293987590
1.1098681243
1.1126310335
1.1143408611
1.1176299235
1.1222798295
1.1280434341
1.1346900397
1.1420289317
1.1499132010
1.1582242552
1.1668494511
1.1756622439
1.1845099271
1.1932164400
1.2015975664
1.2094820684
1.2167339403
1.2232665257
1.2290455452
1.2340842439
1.2384312949
1.2421563884
1.2453382607
1.2480543735
1.2503740485
1.2523557325
1.2540455756
1.2554778935
1.2566774005
1.2576608102
1.2584387274
1.2590179626
1.2594024528
1.2595941548
1.2609365074
1.2018180983
1.1988685578
1.1991489601
1.1997054886
1.2005299470
1.2016096551
1.2029271092
1.2044599532
1.2061800972
1.2080530591
1.2100377966
1.2120862914
1.2141437435
1.2161496669
1.2180397838
1.2197492779
1.2212178859
1.2223976630
1.2232621315
1.2238124651
1.2240739064
1.2254024889
1.1099851460
1.1128717035
1.1144920279
1.1176031444
1.1219944534
1.1274342865
1.1337119533
1.1406581240
1.1481478829
1.1560864789
1.1643885371
1.1729576420
1.1816702017
1.1903717191
1.1988850391
1.2070277191
1.2146355889
1.2215826107
1.2277919521
1.2332385788
1.2379420157
1.2419537910
1.2453449497
1.2481938289
1.2505767952
1.2525632578
1.2542124217
1.2555723618
1.2566812501
1.2575682809
1.2582550748
1.2587576172
1.2590869414
1.2592498414
1.2605295984
1.2007035418
1.1977032194
1.1979338819
1.1983931952
1.1990773407
1.1999797975
1.2010905992
1.2023958377
1.2038762495
1.2055060586
1.2072523058
1.2090739014
1.2109213665
1.2127375248
1.2144590941
1.2160199621
1.2173568337
1.2184185824
1.2191784954
1.2196443254
1.2198559338
1.2212712523
1.1097402736
1.1127494271
1.1142889189
1.1172406532
1.1214058274
1.1265722913
1.1325500493
1.1391867408
1.1463700921
1.1540165456
1.1620548085
1.1704082917
1.1789783377
1.1876358426
1.1962219453
1.2045584656
1.2124682393
1.2197966627
1.2264287988
1.2322997356
1.2373941013
1.2417377505
1.2453867420
1.2484144385
1.2509003372
1.2529227889
1.2545536164
1.2558553683
1.2568811033
1.2576742755
1.2582693537
1.2586931575
1.2589651635
1.2590979466
1.2602752029
1.1994902055
1.1964805016
1.1966654425
1.1970352545
1.1975898718
1.1983280478
1.1992462653
1.2003378557
1.2015911444
1.2029879001
1.2045022702
1.2060993963
1.2077347620
1.2093544925
1.2108965686
1.2122939667
1.2134806800
1.2144026512
1.2150337587
1.2153914094
1.2155370923
1.2170361531
1.1090403000
1.1121688869
1.1136375319
1.1164501167
1.1204238992
1.1253712164
1.1311246574
1.1375458660
1.1445273632
1.1519851230
1.1598484035
1.1680477562
1.1765007685
1.1851018370
1.1937164977
1.2021836925
1.2103293590
1.2179851409
1.2250079112
1.2312963813
1.2367980345
1.2415070924
1.2454572595
1.2487099950
1.2513425171
1.2534386025
1.2550809880
1.2563464525
1.2573037085
1.2580118351
1.2585197516
1.2588666609
1.2590817920
1.2591844393
1.2602099242
1.1982062005
1.1952297067
1.1953732138
1.1956617672
1.1960984130
1.1966862715
1.1974271627
1.1983204211
1.1993606909
1.2005360800
1.2018268087
1.2032034769
1.2046260825
1.2060439395
1.2073964330
1.2086158319
1.2096334251
1.2103919367
1.2108660201
1.2110858994
1.2111441742
1.2127231020
1.1077751566
1.1110179806
1.1124268011
1.1151210081
1.1189388104
1.1237233070
1.1293328737
1.1356415968
1.1425404260
1.1499344372
1.1577402842
1.1658817619
1.1742807116
1.1828479192
1.1914734532
1.2000214246
1.2083350920
1.2162489274
1.2236061756
1.2302784555
1.2361789978
1.2412678307
1.2455503535
1.2490690118
1.2518921812
1.2541039886
1.2557948197
1.2570540957
1.2579658966
1.2586055316
1.2590374589
1.2593144866
1.2594767139
1.2595509927
1.2603650581
1.1968835931
1.1939826453
1.1940891146
1.1943048665
1.1946354161
1.1950873439
1.1956667007
1.1963775986
1.1972197455
1.1981863936
1.1992628025
1.2004242387
1.2016347171
1.2028465463
1.2040005216
1.2050281727
1.2058576366
1.2064272806
1.2067114992
1.2067560278
1.2066973024
1.2083513298
1.1058191110
1.1091691999
1.1105304287
1.1131268749
1.1168239233
1.1215035445
1.1270544171
1.1333625724
1.1403120426
1.1477875023
1.1556804108
1.1638935900
1.1723393018
1.1809338280
1.1895865087
1.1981889465
1.2066117635
1.2147078160
1.2223238255
1.2293187338
1.2355803590
1.2410370487
1.2456631697
1.2494762829
1.2525290313
1.2548995345
1.2566808874
1.2579718854
1.2588702159
1.2594668415
1.2598419642
1.2600625936
1.2601804041
1.2602303970
1.2607624451
1.1955560590
1.1927712816
1.1928450860
1.1929964503
1.1932327240
1.1935630585
1.1939966570
1.1945412276
1.1952003387
1.1959712500
1.1968432763
1.1977955866
1.1987957066
1.1997986825
1.2007465854
1.2015698936
1.2021925620
1.2025462499
1.2026020162
1.2024222628
1.2022040634
1.2039273037
1.1030346946
1.1064837584
1.1078121145
1.1103317641
1.1139440595
1.1185804057
1.1241653573
1.1305966868
1.1377461709
1.1454686082
1.1536178698
1.1620617706
1.1706887530
1.1794079319
1.1881390756
1.1967985692
1.2052892708
1.2134945270
1.2212813357
1.2285134332
1.2350674221
1.2408483885
1.2458018097
1.2499174770
1.2532264372
1.2557939367
1.2577094036
1.2590759160
1.2600011743
1.2605895938
1.2609360031
1.2611212049
1.2612084460
1.2612410235
1.2614098452
1.1942571737
1.1916259491
1.1916713332
1.1917664742
1.1919199385
1.1921425902
1.1924457554
1.1928396256
1.1933305138
1.1939186437
1.1945964922
1.1953464300
1.1961390050
1.1969316950
1.1976675684
1.1982754302
1.1986733340
1.1987822773
1.1985636884
1.1980941784
1.1976527473
1.1994376623
1.0992850250
1.1028241059
1.1041397485
1.1066058762
1.1101734900
1.1148371109
1.1205630472
1.1272594409
1.1347787623
1.1429349984
1.1515314806
1.1603874720
1.1693543905
1.1783220875
1.1872109946
1.1959566349
1.2044944339
1.2127456335
1.2206113011
1.2279774596
1.2347268889
1.2407551010
1.2459864737
1.2503847053
1.2539560866
1.2567469201
1.2588358995
1.2603236996
1.2613224592
1.2619458631
1.2623004885
1.2624790923
1.2625554286
1.2625805418
1.2622963052
1.1930186246
1.1905734528
1.1905944397
1.1906410900
1.1907225983
1.1908507301
1.1910379759
1.1912959953
1.1916328479
1.1920508070
1.1925447401
1.1930996113
1.1936885370
1.1942710790
1.1947908768
1.1951741188
1.1953304935
1.1951644017
1.1946165083
1.1937676208
1.1930028975
1.1948393878
1.0944521220
1.0980724501
1.0994065589
1.1018485471
1.1054222646
1.1102026029
1.1162020193
1.1233338179
1.1314196707
1.1402183664
1.1494684661
1.1589282785
1.1684018394
1.1777508515
1.1868888019
1.1957646880
1.2043442315
1.2125895022
1.2204447072
1.2278325816
1.2346593915
1.2408277226
1.2462535465
1.2508813815
1.2546937864
1.2577144539
1.2600048621
1.2616557568
1.2627764270
1.2634835641
1.2638905539
1.2640984634
1.2641890763
1.2642196760
1.2633883537
1.1918671894
1.1896339542
1.1896342402
1.1896394974
1.1896590009
1.1897046734
1.1897893069
1.1899251414
1.1901211367
1.1903808632
1.1907009640
1.1910685080
1.1914587816
1.1918330466
1.1921349297
1.1922867280
1.1921865431
1.1917139728
1.1907708890
1.1894175663
1.1881649687
1.1900388686
1.0884440170
1.0921381576
1.0935439749
1.0960057771
1.0996617915
1.1046870460
1.1111388297
1.1189216775
1.1278064584
1.1374768440
1.1475913422
1.1578380277
1.1679689293
1.1778150840
1.1872807532
1.1963257210
1.2049435994
1.2131370777
1.2208974639
1.2281933501
1.2349682950
1.2411480956
1.2466554852
1.2514270970
1.2554275243
1.2586579778
1.2611583928
1.2630025186
1.2642886292
1.2651284642
1.2656352605
1.2659127978
1.2660467809
1.2660980705
1.2646290345
1.1908224870
1.1888186645
1.1888014689
1.1887715009
1.1887376214
1.1887112488
1.1887047302
1.1887301511
1.1887967087
1.1889087246
1.1890642199
1.1892520815
1.1894495181
1.1896191722
1.1897039921
1.1896208107
1.1892521780
1.1884422315
1.1870267115
1.1849932982
1.1829688721
1.1848594674
1.0811592886
1.0849233664
1.0865022587
1.0890672546
1.0929441935
1.0984232121
1.1055900031
1.1143098287
1.1242697943
1.1350528688
1.1462245177
1.1574013756
1.1682893815
1.1786965759
1.1885238738
1.1977443743
1.2063789716
1.2144691301
1.2220526701
1.2291469615
1.2357405994
1.2417946221
1.2472526072
1.2520564666
1.2561623627
1.2595533767
1.2622470243
1.2642950118
1.2657769489
1.2667909869
1.2674418618
1.2678288283
1.2680358863
1.2681236756
1.2659409701
1.1898951480
1.1881281064
1.1880959384
1.1880355111
1.1879548177
1.1878641723
1.1877748148
1.1876980569
1.1876428212
1.1876138359
1.1876103851
1.1876232722
1.1876318883
1.1876005600
1.1874715338
1.1871550599
1.1865140348
1.1853442171
1.1833759358
1.1804231187
1.1771136617
1.1789893732
1.0722773711
1.0761179407
1.0781186828
1.0810130145
1.0854211973
1.0917353995
1.1000251028
1.1100645276
1.1214134910
1.1335309005
1.1458888013
1.1580487654
1.1696938287
1.1806305403
1.1907719262
1.2001124951
1.2087018555
1.2166173091
1.2239386788
1.2307288794
1.2370220590
1.2428198249
1.2480960674
1.2528095132
1.2569186732
1.2603960152
1.2632395316
1.2654771074
1.2671641885
1.2683776188
1.2692052101
1.2697337969
1.2700391936
1.2701772800
1.2672340748
1.1890864644
1.1875520836
1.1875064518
1.1874183134
1.1872943020
1.1871429518
1.1869736035
1.1867959835
1.1866179738
1.1864440836
1.1862745459
1.1861022526
1.1859097100
1.1856650040
1.1853130583
1.1847618374
1.1838575833
1.1823408153
1.1797893383
1.1756582570
1.1701197169
1.1719292935
1.0602730604
1.0642353235
1.0677082256
1.0717845694
1.0775131522
1.0853725636
1.0953846460
1.1071957783
1.1202144028
1.1337789806
1.1472989697
1.1603262932
1.1725662531
1.1838591189
1.1941524224
1.2034725226
1.2118986870
1.2195387333
1.2265059441
1.2328998789
1.2387937114
1.2442273409
1.2492075726
1.2537166642
1.2577242553
1.2612004817
1.2641294368
1.2665169810
1.2683923501
1.2698060832
1.2708224552
1.2715090022
1.2719273275
1.2721241576
1.2684185566
1.1883920398
1.1870738755
1.1870152345
1.1868999543
1.1867326447
1.1865190498
1.1862652219
1.1859774961
1.1856603683
1.1853151129
1.1849391662
1.1845230418
1.1840476175
1.1834811995
1.1827723145
1.1818389356
1.1805470546
1.1786595465
1.1757179392
1.1707925292
1.1622926247
1.1639453291
1.0371900629
1.0414852361
1.0537431081
1.0623091411
1.0710267168
1.0813536089
1.0936012127
1.1074055787
1.1220749038
1.1368792771
1.1512319600
1.1647437929
1.1771981552
1.1885052966
1.1986653632
1.2077408294
1.2158355202
1.2230771813
1.2295992736
1.2355242233
1.2409520347
1.2459520046
1.2505594222
1.2547803961
1.2585998847
1.2619919699
1.2649331101
1.2674116429
1.2694324149
1.2710187960
1.2722086699
1.2730464485
1.2735757276
1.2738311165
1.2694199931
1.1878079686
1.1866772685
1.1866057996
1.1864633886
1.1862518899
1.1859730293
1.1856276415
1.1852156899
1.1847335717
1.1841716974
1.1835120915
1.1827214036
1.1817413609
1.1804735594
1.1787479027
1.1762648954
1.1724806643
1.1663570205
1.1557968041
1.1362641902
1.0971700710
1.0127353758
0.9128319936
0.9852981625
1.0833466609
1.0715810226
1.0697103549
1.0712806165
1.0768582954
1.0862370603
1.0986938561
1.1131492960
1.1284434331
1.1436138476
1.1580276743
1.1713536317
1.1834616777
1.1943342311
1.2040179981
1.2125995784
1.2201921228
1.2269268456
1.2329407995
1.2383632499
1.2433063164
1.2478561781
1.2520672889
1.2559642799
1.2595462798
1.2627937697
1.2656803614
1.2681824573
1.2702855877
1.2719896919
1.2733084636
1.2742641169
1.2748823421
1.2751853898
1.2701915089
1.1873357447
1.1863525461
1.1862697512
1.1861031559
1.1858517488
1.1855130667
1.1850825126
1.1845534949
1.1839143374
1.1831452728
1.1822153233
1.1810736930
1.1796383823
1.1777795635
1.1752871121
1.1718174492
1.1668001937
1.1592558567
1.1474394332
1.1281072109
1.0950297601
1.0374413846
0.9161376697
0.9884300025
1.0439496202
1.0528203299
1.0603441978
1.0677037439
1.0770960838
1.0892845693
1.1039303519
1.1199860252
1.1362311848
1.1517263159
1.1659706253
1.1788120944
1.1902805952
1.2004682741
1.2094832597
1.2174381361
1.2244504391
1.2306465089
1.2361569008
1.2411066454
1.2456083698
1.2497535963
1.2536053969
1.2571984732
1.2605408020
1.2636177163
1.2664021450
1.2688637204
1.2709757167
1.2727223440
1.2741004148
1.2751161837
1.2757822050
1.2761115426
1.2707196978
1.1869790702
1.1860944026
1.1860036028
1.1858196981
1.1855392836
1.1851564543
1.1846622804
1.1840452235
1.1832879629
1.1823643481
1.1812364705
1.1798459582
1.1781031548
1.1758726936
1.1729452731
1.1689951455
1.1635119000
1.1556739543
1.1441268245
1.1265897022
1.0992411117
1.0574546074
0.9803899345
1.0088740952
1.0399527160
1.0499524598
1.0584773220
1.0675130512
1.0788100888
1.0929637726
1.1094459551
1.1269435695
1.1440203931
1.1597070276
1.1736391016
1.1858638285
1.1965858042
1.2060138937
1.2143196866
1.2216409382
1.2280972375
1.2338065430
1.2388881793
1.2434567872
1.2476176949
1.2514584837
1.2550407865
1.2583996722
1.2615440886
1.2644596337
1.2671181823
1.2694866135
1.2715337270
1.2732382254
1.2745911327
1.2755932544
1.2762527302
1.2765795936
1.2710200094
1.1867378207
1.1858968378
1.1858026044
1.1856109100
1.1853166903
1.1849116976
1.1843841556
1.1837195006
1.1828972823
1.1818883164
1.1806522591
1.1791292902
1.1772303671
1.1748252916
1.1717185286
1.1676152102
1.1620706728
1.1543992694
1.1435295620
1.1277811294
1.1045933708
1.0716286714
1.0182116276
1.0243032105
1.0404339047
1.0494638098
1.0582791411
1.0682799163
1.0808071946
1.0963299746
1.1141725486
1.1327782843
1.1504890897
1.1662654790
1.1798484218
1.1914725597
1.2015006914
1.2102443613
1.2179306411
1.2247191114
1.2307307944
1.2360753735
1.2408603201
1.2451875662
1.2491504342
1.2528254262
1.2562638038
1.2594914218
1.2625096319
1.2652985656
1.2678275226
1.2700639414
1.2719799869
1.2735599622
1.2748017404
1.2757130642
1.2763081966
1.2766017086
1.2711229501
1.1866080519
1.1857537127
1.1856610605
1.1854720139
1.1851806137
1.1847773648
1.1842490234
1.1835795983
1.1827473484
1.1817221553
1.1804635648
1.1789128680
1.1769842379
1.1745546186
1.1714422780
1.1673782129
1.1619663411
1.1546122938
1.1444197331
1.1300519645
1.1096127422
1.0817398130
1.0411558304
1.0360380095
1.0430484677
1.0502127118
1.0587297076
1.0691270363
1.0823184565
1.0986372150
1.1173056946
1.1365978520
1.1546858074
1.1704710793
1.1837598361
1.1949143732
1.2044215328
1.2126675654
1.2199203797
1.2263564489
1.2320988214
1.2372513748
1.2419116309
1.2461687264
1.2501010571
1.2537683233
1.2572037114
1.2604154682
1.2633899859
1.2660973490
1.2685036706
1.2705807373
1.2723118559
1.2736974607
1.2747539804
1.2755074228
1.2759877375
1.2762208741
1.2710586337
1.1865860904
1.1856629457
1.1855768160
1.1854006838
1.1851283946
1.1847501705
1.1842524422
1.1836189782
1.1828279243
1.1818493047
1.1806433398
1.1791527577
1.1772944037
1.1749500586
1.1719463176
1.1680285341
1.1628258955
1.1557890730
1.1461042194
1.1325898171
1.1136378994
1.0882313174
1.0535330511
1.0435367310
1.0459547412
1.0515862421
1.0595826741
1.0699313106
1.0832527173
1.0997706193
1.1186543339
1.1381094927
1.1562369689
1.1719122877
1.1849733980
1.1958394018
1.2050579252
1.2130523756
1.2201114014
1.2264211737
1.2321068993
1.2372693756