<VTKFile type="UnstructuredGrid" version="0.1">
	<UnstructuredGrid>
		<Piece NumberOfPoints="13548" NumberOfCells="3387">
			<CellData>
				<DataArray type="Int32" Name="ghost" NumberOfComponents="1" Format="ascii">
1
1
1
1
1
1
1
1
1
1
1
1
1
1
1
1
1
1
1
1
1
1
1
1
1
1
1
1
1
1
1
1
1
1
1
1
1
1
1
1
1
1
1
1
1
1
1
1
1
1
1
1
1
1
1
1
1
1
0
0
0
0
0
0
0
0
0
0
0
0
0
0
0
0
0
0
0
0
1
1
0
0
0
0
0
0
0
0
0
0
0
0
0
0
0
0
0
0
0
0
0
0
0
0
0
0
0
0
0
0
0
0
0
1
1
0
0
0
0
0
0
0
0
0
0
0
0
0
0
0
0
0
0
0
0
1
1
0
0
0
0
0
0
0
0
0
0
0
0
0
0
0
0
0
0
0
0
0
0
0
0
0
0
0
0
0
0
0
0
0
1
1
0
0
0
0
0
0
0
0
0
0
0
0
0
0
0
0
0
0
0
0
1
1
0
0
0
0
0
0
0
0
0
0
0
0
0
0
0
0
0
0
0
0
0
0
0
0
0
0
0
0
0
0
0
0
0
1
1
0
0
0
0
0
0
0
0
0
0
0
0
0
0
0
0
0
0
0
0
1
1
0
0
0
0
0
0
0
0
0
0
0
0
0
0
0
0
0
0
0
0
0
0
0
0
0
0
0
0
0
0
0
0
0
1
1
0
0
0
0
0
0
0
0
0
0
0
0
0
0
0
0
0
0
0
0
1
1
0
0
0
0
0
0
0
0
0
0
0
0
0
0
0
0
0
0
0
0
0
0
0
0
0
0
0
0
0
0
0
0
0
1
1
0
0
0
0
0
0
0
0
0
0
0
0
0
0
0
0
0
0
0
0
1
1
0
0
0
0
0
0
0
0
0
0
0
0
0
0
0
0
0
0
0
0
0
0
0
0
0
0
0
0
0
0
0
0
0
1
1
0
0
0
0
0
0
0
0
0
0
0
0
0
0
0
0
0
0
0
0
1
1
0
0
0
0
0
0
0
0
0
0
0
0
0
0
0
0
0
0
0
0
0
0
0
0
0
0
0
0
0
0
0
0
0
1
1
0
0
0
0
0
0
0
0
0
0
0
0
0
0
0
0
0
0
0
0
1
1
0
0
0
0
0
0
0
0
0
0
0
0
0
0
0
0
0
0
0
0
0
0
0
0
0
0
0
0
0
0
0
0
0
1
1
0
0
0
0
0
0
0
0
0
0
0
0
0
0
0
0
0
0
0
0
1
1
0
0
0
0
0
0
0
0
0
0
0
0
0
0
0
0
0
0
0
0
0
0
0
0
0
0
0
0
0
0
0
0
0
1
1
0
0
0
0
0
0
0
0
0
0
0
0
0
0
0
0
0
0
0
0
1
1
0
0
0
0
0
0
0
0
0
0
0
0
0
0
0
0
0
0
0
0
0
0
0
0
0
0
0
0
0
0
0
0
0
1
1
0
0
0
0
0
0
0
0
0
0
0
0
0
0
0
0
0
0
0
0
1
1
0
0
0
0
0
0
0
0
0
0
0
0
0
0
0
0
0
0
0
0
0
0
0
0
0
0
0
0
0
0
0
0
0
1
1
0
0
0
0
0
0
0
0
0
0
0
0
0
0
0
0
0
0
0
0
1
1
0
0
0
0
0
0
0
0
0
0
0
0
0
0
0
0
0
0
0
0
0
0
0
0
0
0
0
0
0
0
0
0
0
1
1
0
0
0
0
0
0
0
0
0
0
0
0
0
0
0
0
0
0
0
0
1
1
0
0
0
0
0
0
0
0
0
0
0
0
0
0
0
0
0
0
0
0
0
0
0
0
0
0
0
0
0
0
0
0
0
1
1
0
0
0
0
0
0
0
0
0
0
0
0
0
0
0
0
0
0
0
0
1
1
0
0
0
0
0
0
0
0
0
0
0
0
0
0
0
0
0
0
0
0
0
0
0
0
0
0
0
0
0
0
0
0
0
1
1
0
0
0
0
0
0
0
0
0
0
0
0
0
0
0
0
0
0
0
0
1
1
0
0
0
0
0
0
0
0
0
0
0
0
0
0
0
0
0
0
0
0
0
0
0
0
0
0
0
0
0
0
0
0
0
1
1
0
0
0
0
0
0
0
0
0
0
0
0
0
0
0
0
0
0
0
0
1
1
0
0
0
0
0
0
0
0
0
0
0
0
0
0
0
0
0
0
0
0
0
0
0
0
0
0
0
0
0
0
0
0
0
1
1
0
0
0
0
0
0
0
0
0
0
0
0
0
0
0
0
0
0
0
0
1
1
0
0
0
0
0
0
0
0
0
0
0
0
0
0
0
0
0
0
0
0
0
0
0
0
0
0
0
0
0
0
0
0
0
1
1
0
0
0
0
0
0
0
0
0
0
0
0
0
0
0
0
0
0
0
0
1
1
0
0
0
0
0
0
0
0
0
0
0
0
0
0
0
0
0
0
0
0
0
0
0
0
0
0
0
0
0
0
0
0
0
1
1
0
0
0
0
0
0
0
0
0
0
0
0
0
0
0
0
0
0
0
0
1
1
0
0
0
0
0
0
0
0
0
0
0
0
0
0
0
0
0
0
0
0
0
0
0
0
0
0
0
0
0
0
0
0
0
1
1
0
0
0
0
0
0
0
0
0
0
0
0
0
0
0
0
0
0
0
0
1
1
0
0
0
0
0
0
0
0
0
0
0
0
0
0
0
0
0
0
0
0
0
0
0
0
0
0
0
0
0
0
0
0
0
1
1
0
0
0
0
0
0
0
0
0
0
0
0
0
0
0
0
0
0
0
0
1
1
0
0
0
0
0
0
0
0
0
0
0
0
0
0
0
0
0
0
0
0
0
0
0
0
0
0
0
0
0
0
0
0
0
1
1
0
0
0
0
0
0
0
0
0
0
0
0
0
0
0
0
0
0
0
0
1
1
0
0
0
0
0
0
0
0
0
0
0
0
0
0
0
0
0
0
0
0
0
0
0
0
0
0
0
0
0
0
0
0
0
1
1
0
0
0
0
0
0
0
0
0
0
0
0
0
0
0
0
0
0
0
0
1
1
0
0
0
0
0
0
0
0
0
0
0
0
0
0
0
0
0
0
0
0
0
0
0
0
0
0
0
0
0
0
0
0
0
1
1
0
0
0
0
0
0
0
0
0
0
0
0
0
0
0
0
0
0
0
0
1
1
0
0
0
0
0
0
0
0
0
0
0
0
0
0
0
0
0
0
0
0
0
0
0
0
0
0
0
0
0
0
0
0
0
1
1
0
0
0
0
0
0
0
0
0
0
0
0
0
0
0
0
0
0
0
0
0
1
1
0
0
0
0
0
0
0
0
0
0
0
0
0
0
0
0
0
0
0
0
0
0
0
0
0
0
0
0
0
0
0
0
0
0
1
1
0
0
0
0
0
0
0
0
0
0
0
0
0
0
0
0
0
0
0
0
0
0
0
0
0
0
0
0
0
0
0
0
0
0
0
0
0
0
0
0
0
0
0
0
0
0
0
0
0
0
0
0
0
0
0
0
0
1
1
0
0
0
0
0
0
0
0
0
0
0
0
0
0
0
0
0
0
0
0
0
0
0
0
0
0
0
0
0
0
0
0
0
0
0
0
0
0
0
0
0
0
0
0
0
0
0
0
0
0
0
0
0
0
0
0
0
1
1
0
0
0
0
0
0
0
0
0
0
0
0
0
0
0
0
0
0
0
0
0
0
0
0
0
0
0
0
0
0
0
0
0
0
0
0
0
0
0
0
0
0
0
0
0
0
0
0
0
0
0
0
0
0
0
0
0
1
1
0
0
0
0
0
0
0
0
0
0
0
0
0
0
0
0
0
0
0
0
0
0
0
0
0
0
0
0
0
0
0
0
0
0
0
0
0
0
0
0
0
0
0
0
0
0
0
0
0
0
0
0
0
0
0
0
0
1
1
0
0
0
0
0
0
0
0
0
0
0
0
0
0
0
0
0
0
0
0
0
0
0
0
0
0
0
0
0
0
0
0
0
0
0
0
0
0
0
0
0
0
0
0
0
0
0
0
0
0
0
0
0
0
0
0
0
1
1
0
0
0
0
0
0
0
0
0
0
0
0
0
0
0
0
0
0
0
0
0
0
0
0
0
0
0
0
0
0
0
0
0
0
0
0
0
0
0
0
0
0
0
0
0
0
0
0
0
0
0
0
0
0
0
0
0
1
1
0
0
0
0
0
0
0
0
0
0
0
0
0
0
0
0
0
0
0
0
0
0
0
0
0
0
0
0
0
0
0
0
0
0
0
0
0
0
0
0
0
0
0
0
0
0
0
0
0
0
0
0
0
0
0
0
0
1
1
0
0
0
0
0
0
0
0
0
0
0
0
0
0
0
0
0
0
0
0
0
0
0
0
0
0
0
0
0
0
0
0
0
0
0
0
0
0
0
0
0
0
0
0
0
0
0
0
0
0
0
0
0
0
0
0
0
1
1
0
0
0
0
0
0
0
0
0
0
0
0
0
0
0
0
0
0
0
0
0
0
0
0
0
0
0
0
0
0
0
0
0
0
0
0
0
0
0
0
0
0
0
0
0
0
0
0
0
0
0
0
0
0
0
0
0
1
1
0
0
0
0
0
0
0
0
0
0
0
0
0
0
0
0
0
0
0
0
0
0
0
0
0
0
0
0
0
0
0
0
0
0
0
0
0
0
0
0
0
0
0
0
0
0
0
0
0
0
0
0
0
0
0
0
0
1
1
0
0
0
0
0
0
0
0
0
0
0
0
0
0
0
0
0
0
0
0
0
1
1
0
0
0
0
0
0
0
0
0
0
0
0
0
0
0
0
0
0
0
0
0
0
0
0
0
0
0
0
0
0
0
0
0
0
1
1
0
0
0
0
0
0
0
0
0
0
0
0
0
0
0
0
0
0
0
0
1
1
0
0
0
0
0
0
0
0
0
0
0
0
0
0
0
0
0
0
0
0
0
0
0
0
0
0
0
0
0
0
0
0
0
1
1
0
0
0
0
0
0
0
0
0
0
0
0
0
0
0
0
0
0
0
0
1
1
0
0
0
0
0
0
0
0
0
0
0
0
0
0
0
0
0
0
0
0
0
0
0
0
0
0
0
0
0
0
0
0
0
1
1
0
0
0
0
0
0
0
0
0
0
0
0
0
0
0
0
0
0
0
0
1
1
0
0
0
0
0
0
0
0
0
0
0
0
0
0
0
0
0
0
0
0
0
0
0
0
0
0
0
0
0
0
0
0
0
1
1
0
0
0
0
0
0
0
0
0
0
0
0
0
0
0
0
0
0
0
0
1
1
0
0
0
0
0
0
0
0
0
0
0
0
0
0
0
0
0
0
0
0
0
0
0
0
0
0
0
0
0
0
0
0
0
1
1
0
0
0
0
0
0
0
0
0
0
0
0
0
0
0
0
0
0
0
0
1
1
0
0
0
0
0
0
0
0
0
0
0
0
0
0
0
0
0
0
0
0
0
0
0
0
0
0
0
0
0
0
0
0
0
1
1
0
0
0
0
0
0
0
0
0
0
0
0
0
0
0
0
0
0
0
0
1
1
0
0
0
0
0
0
0
0
0
0
0
0
0
0
0
0
0
0
0
0
0
0
0
0
0
0
0
0
0
0
0
0
0
1
1
0
0
0
0
0
0
0
0
0
0
0
0
0
0
0
0
0
0
0
0
1
1
0
0
0
0
0
0
0
0
0
0
0
0
0
0
0
0
0
0
0
0
0
0
0
0
0
0
0
0
0
0
0
0
0
1
1
0
0
0
0
0
0
0
0
0
0
0
0
0
0
0
0
0
0
0
0
1
1
0
0
0
0
0
0
0
0
0
0
0
0
0
0
0
0
0
0
0
0
0
0
0
0
0
0
0
0
0
0
0
0
0
1
1
0
0
0
0
0
0
0
0
0
0
0
0
0
0
0
0
0
0
0
0
1
1
0
0
0
0
0
0
0
0
0
0
0
0
0
0
0
0
0
0
0
0
0
0
0
0
0
0
0
0
0
0
0
0
0
1
1
0
0
0
0
0
0
0
0
0
0
0
0
0
0
0
0
0
0
0
0
1
1
0
0
0
0
0
0
0
0
0
0
0
0
0
0
0
0
0
0
0
0
0
0
0
0
0
0
0
0
0
0
0
0
0
1
1
0
0
0
0
0
0
0
0
0
0
0
0
0
0
0
0
0
0
0
0
1
1
0
0
0
0
0
0
0
0
0
0
0
0
0
0
0
0
0
0
0
0
0
0
0
0
0
0
0
0
0
0
0
0
0
1
1
0
0
0
0
0
0
0
0
0
0
0
0
0
0
0
0
0
0
0
0
1
1
0
0
0
0
0
0
0
0
0
0
0
0
0
0
0
0
0
0
0
0
0
0
0
0
0
0
0
0
0
0
0
0
0
1
1
0
0
0
0
0
0
0
0
0
0
0
0
0
0
0
0
0
0
0
0
1
1
0
0
0
0
0
0
0
0
0
0
0
0
0
0
0
0
0
0
0
0
0
0
0
0
0
0
0
0
0
0
0
0
0
1
1
0
0
0
0
0
0
0
0
0
0
0
0
0
0
0
0
0
0
0
0
1
1
0
0
0
0
0
0
0
0
0
0
0
0
0
0
0
0
0
0
0
0
0
0
0
0
0
0
0
0
0
0
0
0
0
1
1
0
0
0
0
0
0
0
0
0
0
0
0
0
0
0
0
0
0
0
0
1
1
0
0
0
0
0
0
0
0
0
0
0
0
0
0
0
0
0
0
0
0
0
0
0
0
0
0
0
0
0
0
0
0
0
1
1
0
0
0
0
0
0
0
0
0
0
0
0
0
0
0
0
0
0
0
0
1
1
0
0
0
0
0
0
0
0
0
0
0
0
0
0
0
0
0
0
0
0
0
0
0
0
0
0
0
0
0
0
0
0
0
1
1
0
0
0
0
0
0
0
0
0
0
0
0
0
0
0
0
0
0
0
0
1
1
0
0
0
0
0
0
0
0
0
0
0
0
0
0
0
0
0
0
0
0
0
0
0
0
0
0
0
0
0
0
0
0
0
1
1
0
0
0
0
0
0
0
0
0
0
0
0
0
0
0
0
0
0
0
0
1
1
0
0
0
0
0
0
0
0
0
0
0
0
0
0
0
0
0
0
0
0
0
0
0
0
0
0
0
0
0
0
0
0
0
1
1
0
0
0
0
0
0
0
0
0
0
0
0
0
0
0
0
0
0
0
0
1
1
0
0
0
0
0
0
0
0
0
0
0
0
0
0
0
0
0
0
0
0
0
0
0
0
0
0
0
0
0
0
0
0
0
1
1
0
0
0
0
0
0
0
0
0
0
0
0
0
0
0
0
0
0
0
0
1
1
0
0
0
0
0
0
0
0
0
0
0
0
0
0
0
0
0
0
0
0
0
0
0
0
0
0
0
0
0
0
0
0
0
1
1
0
0
0
0
0
0
0
0
0
0
0
0
0
0
0
0
0
0
0
0
1
1
0
0
0
0
0
0
0
0
0
0
0
0
0
0
0
0
0
0
0
0
0
0
0
0
0
0
0
0
0
0
0
0
0
1
1
1
1
1
1
1
1
1
1
1
1
1
1
1
1
1
1
1
1
1
1
1
1
1
1
1
1
1
1
1
1
1
1
1
1
1
1
1
1
1
1
1
1
1
1
1
1
1
1
1
1
1
1
1
1
1
1
				</DataArray>
				<DataArray type="Float64" Name="h" NumberOfComponents="1" Format="ascii">
1.0581954913
1.0609261407
1.0611600643
1.0616208141
1.0622942855
1.0631603612
1.0641937024
1.0653646364
1.0666405123
1.0679865813
1.0693670407
1.0707461962
1.0720892303
1.0733633257
1.0745386332
1.0755889403
1.0764925634
1.0772325828
1.0777966210
1.0781765749
1.0783676662
1.0783676662
1.3127833322
1.3111214994
1.3107190741
1.3099207666
1.3087400613
1.3071997632
1.3053340061
1.3031892916
1.3008256207
1.2983161929
1.2957454623
1.2932065544
1.2907977632
1.2886182619
1.2867637026
1.2853221949
1.2843706453
1.2839711307
1.2841677076
1.2849833517
1.2864163254
1.2884369716
1.2909857899
1.2939731091
1.2972818068
1.3007740317
1.3043008199
1.3077132059
1.3108735268
1.3136640227
1.3159912788
1.3177872154
1.3190064983
1.3196222160
1.3196222160
1.0609261407
1.0637575834
1.0639556543
1.0643463025
1.0649184669
1.0656562397
1.0665393064
1.0675434429
1.0686415244
1.0698041377
1.0710004241
1.0721991337
1.0733693737
1.0744817426
1.0755093320
1.0764284508
1.0772195506
1.0778674702
1.0783612290
1.0786937646
1.0788609790
1.0783676662
1.3111214994
1.3093037146
1.3089254513
1.3081743311
1.3070616058
1.3056067912
1.3038398175
1.3018023574
1.2995493477
1.2971492114
1.2946825063
1.2922398693
1.2899188887
1.2878199063
1.2860413809
1.2846752820
1.2838025328
1.2834883837
1.2837782137
1.2846936462
1.2862285863
1.2883462316
1.2909780274
1.2940249021
1.2973618453
1.3008464159
1.3043296118
1.3076672841
1.3107307802
1.3134140972
1.3156365375
1.3173420228
1.3184951458
1.3190759810
1.3196222160
1.0614656761
1.0642556717
1.0644515613
1.0648381597
1.0654049805
1.0661368544
1.0670142539
1.0680136769
1.0691085612
1.0702698398
1.0714667636
1.0726679701
1.0738422737
1.0749598539
1.0759933178
1.0769184814
1.0777153397
1.0783683414
1.0788661948
1.0792016006
1.0793702947
1.0788643060
1.3105653924
1.3087518948
1.3083783527
1.3076368118
1.3065387516
1.3051039437
1.3033625011
1.3013560798
1.2991392902
1.2967798239
1.2943570643
1.2919600810
1.2896846189
1.2876290880
1.2858901418
1.2845582651
1.2837133698
1.2834202456
1.2837243648
1.2846479505
1.2861859146
1.2883027459
1.2909313303
1.2939740303
1.2973071115
1.3007891169
1.3042716333
1.3076106653
1.3106773100
1.3133649970
1.3155922734
1.3173022612
1.3184588360
1.3190415387
1.3195763876
1.0625220690
1.0652306229
1.0654226773
1.0658021696
1.0663596506
1.0670812830
1.0679489588
1.0689404770
1.0700302857
1.0711899344
1.0723888599
1.0735954802
1.0747780604
1.0759059991
1.0769510023
1.0778879673
1.0786960350
1.0793589212
1.0798647422
1.0802057398
1.0803773203
1.0798486329
1.3094577813
1.3076537883
1.3072895911
1.3065670068
1.3054979547
1.3041026985
1.3024116950
1.3004665510
1.2983212238
1.2960419623
1.2937058483
1.2913988881
1.2892132278
1.2872435043
1.2855828396
1.2843188028
1.2835293060
1.2832782088
1.2836111358
1.2845514591
1.2860960474
1.2882119160
1.2908347840
1.2938698453
1.2971958920
1.3006734212
1.3041551903
1.3074975083
1.3105709682
1.3132678575
1.3155052021
1.3172245108
1.3183882100
1.3189747612
1.3194867563
1.0640515429
1.0666415267
1.0668290496
1.0672001822
1.0677467687
1.0684566325
1.0693134329
1.0702965861
1.0713817885
1.0725413394
1.0737448787
1.0749605118
1.0761557697
1.0772990189
1.0783607744
1.0793147159
1.0801388433
1.0808158806
1.0813331256
1.0816821620
1.0818579026
1.0813014979
1.3078095400
1.3060219456
1.3056714908
1.3049767754
1.3039503467
1.3026131618
1.3009961474
1.2991408060
1.2971001184
1.2949382270
1.2927288805
1.2905536678
1.2884995530
1.2866557359
1.2851102334
1.2839463741
1.2832391266
1.2830509348
1.2834275699
1.2843940042
1.2859499010
1.2880659284
1.2906819353
1.2937072694
1.2970244487
1.3004968648
1.3039790138
1.3073276534
1.3104126117
1.3131244460
1.3153778731
1.3171119455
1.3182868791
1.3188794856
1.3193569994
1.0659941769
1.0684327006
1.0686161997
1.0689799824
1.0695171770
1.0702172532
1.0710656200
1.0720432874
1.0731271696
1.0742902761
1.0755023985
1.0767312642
1.0779435898
1.0791066115
1.0801895391
1.0811647057
1.0820088302
1.0827034963
1.0832350221
1.0835941575
1.0837751476
1.0831926971
1.3056374455
1.3038751651
1.3035425085
1.3028838741
1.3019125909
1.3006504644
1.2991289692
1.2973894194
1.2954835083
1.2934726787
1.2914264551
1.2894208578
1.2875363309
1.2858552227
1.2844590888
1.2834258433
1.2828266346
1.2827219873
1.2831577232
1.2841607289
1.2857341409
1.2878532469
1.2904631826
1.2934786618
1.2967870516
1.3002555344
1.3037408935
1.3071004720
1.3102030638
1.3129368895
1.3152135362
1.3169687154
1.3181596258
1.3187608213
1.3191919947
1.0682791621
1.0705387896
1.0707200025
1.0710797512
1.0716121562
1.0723079554
1.0731538992
1.0741322096
1.0752207066
1.0763928945
1.0776186051
1.0788651692
1.0800985381
1.0812849019
1.0823922524
1.0833916401
1.0842585257
1.0849733201
1.0855212653
1.0858921119
1.0860792344
1.0854798908
1.3029653276
1.3012391799
1.3009278952
1.3003125722
1.2994074389
1.2982352517
1.2968280631
1.2952268915
1.2934818593
1.2916512183
1.2897995602
1.2879964432
1.2863147552
1.2848288863
1.2836128409
1.2827381323
1.2822712971
1.2822704197
1.2827811702
1.2838324953
1.2854314841
1.2875588086
1.2901658666
1.2931738053
1.2964758635
1.2999438524
1.3034373659
1.3068144613
1.3099426220
1.3127071050
1.3150155087
1.3167992640
1.3180116870
1.3186244161
1.3189970875
1.0708302308
1.0728898801
1.0730715814
1.0734325470
1.0739673427
1.0746672675
1.0755196545
1.0765072348
1.0776081762
1.0787961188
1.0800407895
1.0813091714
1.0825666431
1.0837786226
1.0849121736
1.0859373161
1.0868284269
1.0875648163
1.0881305982
1.0885143454
1.0887083009
1.0881084561
1.2998262083
1.2981483567
1.2978613380
1.2972951856
1.2964651157
1.2953948998
1.2941171658
1.2926725313
1.2911093260
1.2894822602
1.2878505137
1.2862765903
1.2848251328
1.2835618121
1.2825522891
1.2818609007
1.2815488793
1.2816713317
1.2822734581
1.2833862205
1.2850209085
1.2871641049
1.2897742254
1.2927797392
1.2960806526
1.2995541697
1.3030631879
1.3064666014
1.3096303038
1.3124359440
1.3147862311
1.3166073146
1.3178476929
1.3184753713
1.3187769862
1.0735719959
1.0754174293
1.0756030611
1.0759717263
1.0765176994
1.0772318893
1.0781011953
1.0791079249
1.0802298681
1.0814403576
1.0827088756
1.0840021899
1.0852854409
1.0865237190
1.0876836246
1.0887345546
1.0896500978
1.0904086091
1.0909930410
1.0913905668
1.0915919436
1.0910139358
1.2962615147
1.2946445125
1.2943837641
1.2938708615
1.2931220880
1.2921622781
1.2910246304
1.2897492970
1.2883826976
1.2869758378
1.2855822752
1.2842572031
1.2830567003
1.2820373188
1.2812558913
1.2807690190
1.2806320415
1.2808965350
1.2816067890
1.2827955327
1.2844782522
1.2866476994
1.2892698130
1.2922810640
1.2955889706
1.2990768053
1.3026112270
1.3060520889
1.3092634223
1.3121226166
1.3145265574
1.3163950505
1.3176707691
1.3183173028
1.3185347786
1.0764342370
1.0780580626
1.0782512689
1.0786344660
1.0792008008
1.0799397172
1.0808365374
1.0818721085
1.0830230559
1.0842619536
1.0855579443
1.0868778028
1.0881868817
1.0894505152
1.0906354244
1.0917108908
1.0926500833
1.0934305822
1.0940341325
1.0944462116
1.0946556071
1.0941256302
1.2923213380
1.2907769534
1.2905433394
1.2900855048
1.2894208989
1.2885754871
1.2875830808
1.2864833967
1.2853209908
1.2841432391
1.2829981784
1.2819337957
1.2809976657
1.2802371792
1.2797001535
1.2794351016
1.2794909761
1.2799152493
1.2807507328
1.2820314636
1.2837768532
1.2859857925
1.2886319707
1.2916603027
1.2949863886
1.2985001403
1.3020723970
1.3055640999
1.3088371690
1.3117640963
1.3142349940
1.3161622167
1.3174815396
1.3181512930
1.3182708210
1.0793548809
1.0807560504
1.0809601999
1.0813642116
1.0819592719
1.0827322937
1.0836659014
1.0847384810
1.0859247598
1.0871961704
1.0885214985
1.0898678250
1.0912012368
1.0924879423
1.0936954125
1.0947933531
1.0957548973
1.0965570289
1.0971801990
1.0976077929
1.0978259784
1.0973715907
1.2880650566
1.2866030658
1.2863960152
1.2859922454
1.2854105305
1.2846781087
1.2838295536
1.2829043443
1.2819454514
1.2809969972
1.2801019511
1.2793015797
1.2786353903
1.2781419114
1.2778600298
1.2778299986
1.2780939660
1.2786946943
1.2796728168
1.2810630008
1.2828880362
1.2851526193
1.2878381171
1.2908980701
1.2942565311
1.2978105007
1.3014353737
1.3049933240
1.3083439564
1.3113542699
1.3139066717
1.3159049390
1.3172768350
1.3179745402
1.3179812928
1.0822823470
1.0834652459
1.0836830308
1.0841128395
1.0847431659
1.0855574648
1.0865347024
1.0876499701
1.0888755187
1.0901813835
1.0915360639
1.0929072931
1.0942624223
1.0955691451
1.0967962784
1.0979144550
1.0988971259
1.0997208242
1.1003645677
1.1008091408
1.1010372414
1.1006849238
1.2835584124
1.2821855063
1.2820027561
1.2816487486
1.2811438446
1.2805168176
1.2798033213
1.2790430302
1.2782779087
1.2775495539
1.2768967110
1.2763548018
1.2759560686
1.2757307879
1.2757092361
1.2759233791
1.2764081886
1.2772010577
1.2783395967
1.2798582030
1.2817822183
1.2841214997
1.2868647083
1.2899739117
1.2933817697
1.2969926851
1.3006869354
1.3043280995
1.3077733345
1.3108836344
1.3135328339
1.3156150358
1.3170488744
1.3177794720
1.3176572082
1.0851755722
1.0861488718
1.0863820413
1.0868408414
1.0875105213
1.0883703931
1.0893950755
1.0905557959
1.0918219732
1.0931621460
1.0945446748
1.0959382909
1.0973120810
1.0986357400
1.0998799240
1.1010166079
1.1020198493
1.1028658333
1.1035319545
1.1039957750
1.1042354470
1.1040086238
1.2788718977
1.2775908489
1.2774282422
1.2771160353
1.2766765754
1.2761405888
1.2755453433
1.2749314343
1.2743407547
1.2738135040
1.2733854599
1.2730874717
1.2729456672
1.2729829620
1.2732215353
1.2736851407
1.2744012110
1.2754010323
1.2767181886
1.2783856799
1.2804302941
1.2828660952
1.2856883388
1.2888672335
1.2923439703
1.2960305192
1.2998123157
1.3035545537
1.3071119120
1.3103389982
1.3131003313
1.3152793343
1.3167844504
1.3175528607
1.3172834708
1.0880033879
1.0887788094
1.0890280686
1.0895170906
1.0902275629
1.0911342757
1.0922071478
1.0934132870
1.0947191732
1.0960919006
1.0974998833
1.0989131465
1.1003028642
1.1016410994
1.1029006941
1.1040552617
1.1050796797
1.1059498481
1.1066413148
1.1071276987
1.1073812812
1.1072990452
1.2740798027
1.2728889612
1.2727403386
1.2724581493
1.2720672757
1.2716009754
1.2710988962
1.2706036043
1.2701582455
1.2698031743
1.2695728882
1.2694953306
1.2695919993
1.2698795921
1.2703728640
1.2710874952
1.2720429939
1.2732636977
1.2747779900
1.2766161184
1.2788049391
1.2813614711
1.2842865581
1.2875578755
1.2911248349
1.2949069794
1.2987951205
1.3026563234
1.3063428849
1.3097028246
1.3125907939
1.3148786967
1.3164638483
1.3172746850
1.3168377215
1.0907436249
1.0913347715
1.0915998474
1.0921185032
1.0928687971
1.0938209451
1.0949401584
1.0961894807
1.0975325739
1.0989352576
1.1003661937
1.1017969025
1.1032008427
1.1045526347
1.1058274916
1.1070008412
1.1080485232
1.1089461934
1.1096673232
1.1101807938
1.1104514231
1.1105280045
1.2692560500
1.2681491829
1.2680064713
1.2677389422
1.2673746841
1.2669501700
1.2665083935
1.2660952511
1.2657568489
1.2655356673
1.2654670299
1.2655780196
1.2658872977
1.2664067133
1.2671443968
1.2681081286
1.2693090560
1.2707636073
1.2724936171
1.2745250068
1.2768830741
1.2795862708
1.2826397400
1.2860276826
1.2897071910
1.2936052273
1.2976181344
1.3016151548
1.3054464502
1.3089534760
1.3119807237
1.3143879854
1.3160607171
1.3169179516
1.3162902668
1.0933811247
1.0938025189
1.0940823620
1.0946286389
1.0954159468
1.0964101710
1.0975721142
1.0988610719
1.1002381828
1.1016682278
1.1031202723
1.1045674132
1.1059854265
1.1073515071
1.1086432757
1.1098380438
1.1109127013
1.1118426974
1.1125992232
1.1131455875
1.1134372679
1.1136820945
1.2644724163
1.2634388617
1.2632923711
1.2630212764
1.2626575684
1.2622415998
1.2618207821
1.2614459462
1.2611681979
1.2610344867
1.2610834465
1.2613436856
1.2618330991
1.2625602532
1.2635275587
1.2647350862
1.2661851291
1.2678851273
1.2698488619
1.2720961673
1.2746489494
1.2775253495
1.2807332875
1.2842623154
1.2880764595
1.2921097895
1.2962642673
1.3004116649
1.3044004172
1.3080657005
1.3112418761
1.3137763603
1.3155423073
1.3164489010
1.3156045919
1.0959062239
1.0961725884
1.0964656578
1.0970366659
1.0978571051
1.0988890061
1.1000892896
1.1014139996
1.1028221486
1.1042777289
1.1057502998
1.1072144960
1.1086482975
1.1100313480
1.1113435910
1.1125642062
1.1136711790
1.1146397994
1.1154388269
1.1160251653
1.1163427806
1.1167609197
1.2597981243
1.2588231988
1.2586621285
1.2583675800
1.2579759678
1.2575319497
1.2570883786
1.2567027567
1.2564334651
1.2563345515
1.2564507459
1.2568148457
1.2574462805
1.2583520670
1.2595298941
1.2609723351
1.2626722968
1.2646270700
1.2668407686
1.2693252539
1.2720970704
1.2751721595
1.2785595280
1.2822527259
1.2862217907
1.2904074392
1.2947172619
1.2990259432
1.3031807547
1.3070111586
1.3103417839
1.3130078046
1.3148699986
1.3158275365
1.3147383802
1.0983131422
1.0984389154
1.0987434986
1.0993360743
1.1001855090
1.1012505985
1.1024850389
1.1038422094
1.1052794254
1.1067601159
1.1082543534
1.1097381728
1.1111915368
1.1125963076
1.1139345770
1.1151873036
1.1163335672
1.1173485492
1.1181984974
1.1188331220
1.1191823844
1.1197751542
1.2552966960
1.2543623522
1.2541755205
1.2538377925
1.2533899745
1.2528808887
1.2523696041
1.2519220156
1.2516061575
1.2514859604
1.2516152168
1.2520337493
1.2527649713
1.2538162018
1.2551814806
1.2568461338
1.2587931552
1.2610085117
1.2634850175
1.2662246487
1.2692365908
1.2725326546
1.2761211723
1.2799982342
1.2841388377
1.2884897534
1.2929641217
1.2974399273
1.3017639741
1.3057608507
1.3092462451
1.3120436721
1.3140018929
1.3150102411
1.3136468662
1.1005978802
1.1005969594
1.1009114638
1.1015227142
1.1023974816
1.1034919990
1.1047574331
1.1061450964
1.1076110206
1.1091182570
1.1106373581
1.1121455626
1.1136245327
1.1150580518
1.1164301086
1.1177232661
1.1189176162
1.1199882477
1.1208988805
1.1215913172
1.1219786128
1.1227441895
1.2510253890
1.2501111067
1.2498878139
1.2494897592
1.2489608560
1.2483529426
1.2477316196
1.2471727358
1.2467563114
1.2465589408
1.2466464626
1.2470685840
1.2478551804
1.2490157621
1.2505418413
1.2524118089
1.2545982968
1.2570748693
1.2598215223
1.2628285551
1.2660959133
1.2696294419
1.2734350824
1.2775099957
1.2818330171
1.2863562654
1.2909982505
1.2956406122
1.3001304717
1.3042886283
1.3079230090
1.3108465290
1.3128967711
1.3139537956
1.3122878047
1.1027568618
1.1026425045
1.1029656730
1.1035933712
1.1044907927
1.1056122589
1.1069070705
1.1083250364
1.1098212870
1.1113586620
1.1129081537
1.1144480057
1.1159612831
1.1174333502
1.1188497514
1.1201943393
1.1214479658
1.1225855131
1.1235681697
1.1243291980
1.1247611848
1.1256952052
1.2470348180
1.2461187259
1.2458496312
1.2453797193
1.2447521432
1.2440190631
1.2432523205
1.2425390279
1.2419733545
1.2416471696
1.2416411687
1.2420176368
1.2428152565
1.2440475465
1.2457046166
1.2477583273
1.2501706726
1.2529019778
1.2559181939
1.2591964565
1.2627258841
1.2665047742
1.2705351386
1.2748138245
1.2793223744
1.2840174611
1.2888226646
1.2936235540
1.2982683772
1.3025754112
1.3063463506
1.3093850346
1.3115191972
1.3126206004
1.3106276257
1.1047851663
1.1045699894
1.1049010041
1.1055437702
1.1064623702
1.1076097981
1.1089340904
1.1103840800
1.1119143792
1.1134878249
1.1150758836
1.1166576824
1.1182174374
1.1197417226
1.1212171578
1.1226283067
1.1239561688
1.1251749514
1.1262431568
1.1270849189
1.1275675074
1.1286638320
1.2433644666
1.2424247387
1.2421026316
1.2415588418
1.2408267553
1.2399540676
1.2390180041
1.2381180362
1.2373644099
1.2368665579
1.2367224587
1.2370092720
1.2377764884
1.2390432185
1.2407992214
1.2430103394
1.2456279265
1.2485986441
1.2518736689
1.2554160052
1.2592028521
1.2632238026
1.2674757143
1.2719539274
1.2766416183
1.2814991598
1.2864547730
1.2913981002
1.2961792734
1.3006154119
1.3045037739
1.3076410564
1.3098469375
1.3109862545
1.3086497666
1.1066750483
1.1063711071
1.1067095497
1.1073667608
1.1083061088
1.1094797731
1.1108350830
1.1123204369
1.1138904016
1.1155081825
1.1171459689
1.1187838656
1.1204071349
1.1220031916
1.1235590219
1.1250588049
1.1264822608
1.1278014843
1.1289714139
1.1299063793
1.1304410953
1.1316931923
1.2400376359
1.2390541016
1.2386743782
1.2380693769
1.2372436228
1.2362332003
1.2351197004
1.2340160586
1.2330503078
1.2323512839
1.2320360714
1.2321983500
1.2328998313
1.2341663793
1.2359882816
1.2383259900
1.2411205974
1.2443052691
1.2478163951
1.2516026233
1.2556288344
1.2598753465
1.2643330810
1.2689949569
1.2738448300
1.2788458882
1.2839304288
1.2889921347
1.2938836482
1.2984222826
1.3024028099
1.3056170224
1.3078787163
1.3090475267
1.3063628761
1.1084164694
1.1080353705
1.1083810400
1.1090524648
1.1100126328
1.1112133714
1.1126018660
1.1141267292
1.1157431855
1.1174155371
1.1191174039
1.1208304554
1.1225413139
1.1242380546
1.1259070618
1.1275300556
1.1290820799
1.1305286376
1.1318167689
1.1328483945
1.1334144401
1.1348187377
1.2370518436
1.2360078378
1.2355680923
1.2349363965
1.2340498076
1.2329239818
1.2316446218
1.2303396111
1.2291563058
1.2282442112
1.2277405260
1.2277562005
1.2283657753
1.2296024481
1.2314576767
1.2338873015
1.2368230352
1.2401854892
1.2438971742
1.2478930893
1.2521262477
1.2565678240
1.2612025411
1.2660203176
1.2710048869
1.2761213600
1.2813054085
1.2864545136
1.2914242469
1.2960333401
1.3000760347
1.3033416083
1.3056403935
1.3068287908
1.3038065368
1.1099986254
1.1095516151
1.1099042463
1.1105894816
1.1115702048
1.1127983219
1.1142214888
1.1157893771
1.1174589623
1.1191969943
1.1209801065
1.1227932207
1.1246258685
1.1264677485
1.1283042389
1.1301115902
1.1318527183
1.1334724600
1.1348880426
1.1359622353
1.1364034551
1.1379691943
1.2343712829
1.2332568499
1.2327462574
1.2321510242
1.2312635088
1.2300697953
1.2286606261
1.2271805703
1.2257975021
1.2246821606
1.2239919420
1.2238548441
1.2243579928
1.2255419233
1.2273997272
1.2298836715
1.2329176135
1.2364114730
1.2402758391
1.2444338031
1.2488278719
1.2534209336
1.2581917778
1.2631270777
1.2682098007
1.2734060960
1.2786541814
1.2838548706
1.2888668242
1.2935111815
1.2975834565
1.3008727681
1.3031884636
1.3043857738
1.3010533236
1.1114136116
1.1109115893
1.1112705635
1.1119684414
1.1129681880
1.1142221386
1.1156790270
1.1172905754
1.1190169997
1.1208296248
1.1227110252
1.1246532216
1.1266534881
1.1287088083
1.1308092169
1.1329287187
1.1350125313
1.1369551297
1.1385542200
1.1394027016
1.1385828938
1.1403690487
1.2320557862
1.2308838859
1.2300890588
1.2295992623
1.2288133680
1.2276463808
1.2261862106
1.2245943375
1.2230608250
1.2217787840
1.2209260662
1.2206473517
1.2210418799
1.2221574132
1.2239893102
1.2264878027
1.2295712029
1.2331415777
1.2371005801
1.2413620966
1.2458602969
1.2505512525
1.2554085142
1.2604155266
1.2655539696
1.2707901513
1.2760638998
1.2812786829
1.2862961283
1.2909404555
1.2950099545
1.2982957114
1.3006084168
1.3018041188
1.2982048608
1.1126616534
1.1121150639
1.1124792479
1.1131874710
1.1142027732
1.1154780084
1.1169632885
1.1186130679
1.1203920542
1.1222782670
1.1242637235
1.1263532977
1.1285616666
1.1309098021
1.1334220705
1.1361243310
1.1390450059
1.1422207499
1.1457064737
1.1495875857
1.1539819678
1.1598689874
1.1832349148
1.1835144678
1.2202761399
1.2224478327
1.2247394507
1.2259502511
1.2260799518
1.2253787944
1.2241195442
1.2225708695
1.2209886624
1.2196090251
1.2186393980
1.2182447430
1.2185377314
1.2195741697
1.2213530085
1.2238246820
1.2269050267
1.2304918780
1.2344816766
1.2387824459
1.2433226816
1.2480534516
1.2529439870
1.2579746483
1.2631253591
1.2683617078
1.2736241190
1.2788178642
1.2838071535
1.2884196055
1.2924573828
1.2957152674
1.2980072764
1.2991920089
1.2953816782
1.1137533990
1.1131720710
1.1135399086
1.1142551962
1.1152807512
1.1165695506
1.1180726310
1.1197466848
1.1215603018
1.1234972939
1.1255575794
1.1277560027
1.1301191480
1.1326815194
1.1354818328
1.1385595785
1.1419532676
1.1457017145
1.1498492818
1.1544624285
1.1597084833
1.1665355418
1.1815986383
1.1817481805
1.2132948075
1.2188765162
1.2221489930
1.2239279120
1.2244422660
1.2239789190
1.2228394036
1.2213220470
1.2197094436
1.2182599187
1.2171986335
1.2167037214
1.2168971909
1.2178410634
1.2195380347
1.2219405509
1.2249649602
1.2285085318
1.2324662699
1.2367437116
1.2412663343
1.2459819754
1.2508564329
1.2558671016
1.2609916686
1.2661941312
1.2714144704
1.2765588075
1.2814933444
1.2860490781
1.2900326853
1.2932438671
1.2955014608
1.2966679604
1.2927089069
1.1147087102
1.1141018042
1.1144717116
1.1151906573
1.1162207816
1.1175145385
1.1190230675
1.1207042917
1.1225294082
1.1244863286
1.1265805433
1.1288335743
1.1312792822
1.1339594040
1.1369188505
1.1402011819
1.1438461102
1.1478917219
1.1523865512
1.1574272682
1.1632760534
1.1707974671
1.1828485602
1.1888555973
1.2112682818
1.2180393624
1.2215836735
1.2234422841
1.2240075997
1.2235760341
1.2224420988
1.2209019086
1.2192403676
1.2177203509
1.2165721994
1.2159787100
1.2160659529
1.2168995228
1.2184854498
1.2207795092
1.2237010341
1.2271498098
1.2310225553
1.2352251148
1.2396820947
1.2443394744
1.2491602527
1.2541188428
1.2591901785
1.2643358374
1.2694943610
1.2745717489
1.2794354827
1.2839196368
1.2878356044
1.2909886951
1.2932035069
1.2943473134
1.2903020540
1.1155523025
1.1149283925
1.1152991504
1.1160190852
1.1170492132
1.1183408307
1.1198443806
1.1215180535
1.1233345089
1.1252843833
1.1273770747
1.1296387855
1.1321083434
1.1348322653
1.1378594165
1.1412360202
1.1450031987
1.1492002657
1.1538808384
1.1591585088
1.1653175989
1.1730522811
1.1836452452
1.1922142130
1.2097098931
1.2174205979
1.2214752743
1.2235372007
1.2241854092
1.2237840162
1.2226495523
1.2210856517
1.2193801231
1.2177973548
1.2165688895
1.2158787548
1.2158548107
1.2165652660
1.2180198072
1.2201788523
1.2229666722
1.2262877905
1.2300427903
1.2341396783
1.2385035554
1.2430793502
1.2478275825
1.2527195465
1.2577269274
1.2628081790
1.2678995441
1.2729060105
1.2776956046
1.2821049880
1.2859501120
1.2890421029
1.2912117364
1.2923315010
1.2882572339
1.1163071223
1.1156743434
1.1160452674
1.1167646458
1.1177920182
1.1190770237
1.1205687839
1.1222250114
1.1240189801
1.1259431046
1.1280096384
1.1302483426
1.1327018846
1.1354205362
1.1384563676
1.1418579479
1.1456678383
1.1499260317
1.1546870011
1.1600659236
1.1663347206
1.1740532273
1.1838973886
1.1934680197
1.2083219388
1.2166950373
1.2213231770
1.2236911565
1.2244967507
1.2241756418
1.2230768217
1.2215179539
1.2197926110
1.2181673695
1.2168746367
1.2160992431
1.2159707334
1.2165602858
1.2178820343
1.2199020875
1.2225508272
1.2257386424
1.2293709488
1.2333587317
1.2376281481
1.2421233663
1.2468025271
1.2516336605
1.2565848406
1.2616109107
1.2666451710
1.2715908608
1.2763158717
1.2806588674
1.2844399439
1.2874758819
1.2896036292
1.2907009531
1.2866463418
1.1169891456
1.1163553459
1.1167262394
1.1174445569
1.1184681235
1.1197445751
1.1212212648
1.1228548700
1.1246186427
1.1265060810
1.1285315450
1.1307276067
1.1331400783
1.1358223738
1.1388293225
1.1422115915
1.1460130096
1.1502737306
1.1550469786
1.1604439980
1.1667209620
1.1743676503
1.1838607434
1.1937200752
1.2072976723
1.2160225583
1.2210584798
1.2236855271
1.2246471825
1.2244218308
1.2233806419
1.2218512861
1.2201312611
1.2184883475
1.2171552959
1.2163176488
1.2161068452
1.2165974207
1.2178083556
1.2197117011
1.2222440738
1.2253216918