<VTKFile type="UnstructuredGrid" version="0.1">
	<UnstructuredGrid>
		<Piece NumberOfPoints="13548" NumberOfCells="3387">
			<CellData>
				<DataArray type="Int32" Name="ghost" NumberOfComponents="1" Format="ascii">
1
1
1
1
1
1
1
1
1
1
1
1
1
1
1
1
1
1
1
1
1
1
1
1
1
1
1
1
1
1
1
1
1
1
1
1
1
1
1
1
1
1
1
1
1
1
1
1
1
1
1
1
1
1
1
1
1
1
0
0
0
0
0
0
0
0
0
0
0
0
0
0
0
0
0
0
0
0
1
1
0
0
0
0
0
0
0
0
0
0
0
0
0
0
0
0
0
0
0
0
0
0
0
0
0
0
0
0
0
0
0
0
0
1
1
0
0
0
0
0
0
0
0
0
0
0
0
0
0
0
0
0
0
0
0
1
1
0
0
0
0
0
0
0
0
0
0
0
0
0
0
0
0
0
0
0
0
0
0
0
0
0
0
0
0
0
0
0
0
0
1
1
0
0
0
0
0
0
0
0
0
0
0
0
0
0
0
0
0
0
0
0
1
1
0
0
0
0
0
0
0
0
0
0
0
0
0
0
0
0
0
0
0
0
0
0
0
0
0
0
0
0
0
0
0
0
0
1
1
0
0
0
0
0
0
0
0
0
0
0
0
0
0
0
0
0
0
0
0
1
1
0
0
0
0
0
0
0
0
0
0
0
0
0
0
0
0
0
0
0
0
0
0
0
0
0
0
0
0
0
0
0
0
0
1
1
0
0
0
0
0
0
0
0
0
0
0
0
0
0
0
0
0
0
0
0
1
1
0
0
0
0
0
0
0
0
0
0
0
0
0
0
0
0
0
0
0
0
0
0
0
0
0
0
0
0
0
0
0
0
0
1
1
0
0
0
0
0
0
0
0
0
0
0
0
0
0
0
0
0
0
0
0
1
1
0
0
0
0
0
0
0
0
0
0
0
0
0
0
0
0
0
0
0
0
0
0
0
0
0
0
0
0
0
0
0
0
0
1
1
0
0
0
0
0
0
0
0
0
0
0
0
0
0
0
0
0
0
0
0
1
1
0
0
0
0
0
0
0
0
0
0
0
0
0
0
0
0
0
0
0
0
0
0
0
0
0
0
0
0
0
0
0
0
0
1
1
0
0
0
0
0
0
0
0
0
0
0
0
0
0
0
0
0
0
0
0
1
1
0
0
0
0
0
0
0
0
0
0
0
0
0
0
0
0
0
0
0
0
0
0
0
0
0
0
0
0
0
0
0
0
0
1
1
0
0
0
0
0
0
0
0
0
0
0
0
0
0
0
0
0
0
0
0
1
1
0
0
0
0
0
0
0
0
0
0
0
0
0
0
0
0
0
0
0
0
0
0
0
0
0
0
0
0
0
0
0
0
0
1
1
0
0
0
0
0
0
0
0
0
0
0
0
0
0
0
0
0
0
0
0
1
1
0
0
0
0
0
0
0
0
0
0
0
0
0
0
0
0
0
0
0
0
0
0
0
0
0
0
0
0
0
0
0
0
0
1
1
0
0
0
0
0
0
0
0
0
0
0
0
0
0
0
0
0
0
0
0
1
1
0
0
0
0
0
0
0
0
0
0
0
0
0
0
0
0
0
0
0
0
0
0
0
0
0
0
0
0
0
0
0
0
0
1
1
0
0
0
0
0
0
0
0
0
0
0
0
0
0
0
0
0
0
0
0
1
1
0
0
0
0
0
0
0
0
0
0
0
0
0
0
0
0
0
0
0
0
0
0
0
0
0
0
0
0
0
0
0
0
0
1
1
0
0
0
0
0
0
0
0
0
0
0
0
0
0
0
0
0
0
0
0
1
1
0
0
0
0
0
0
0
0
0
0
0
0
0
0
0
0
0
0
0
0
0
0
0
0
0
0
0
0
0
0
0
0
0
1
1
0
0
0
0
0
0
0
0
0
0
0
0
0
0
0
0
0
0
0
0
1
1
0
0
0
0
0
0
0
0
0
0
0
0
0
0
0
0
0
0
0
0
0
0
0
0
0
0
0
0
0
0
0
0
0
1
1
0
0
0
0
0
0
0
0
0
0
0
0
0
0
0
0
0
0
0
0
1
1
0
0
0
0
0
0
0
0
0
0
0
0
0
0
0
0
0
0
0
0
0
0
0
0
0
0
0
0
0
0
0
0
0
1
1
0
0
0
0
0
0
0
0
0
0
0
0
0
0
0
0
0
0
0
0
1
1
0
0
0
0
0
0
0
0
0
0
0
0
0
0
0
0
0
0
0
0
0
0
0
0
0
0
0
0
0
0
0
0
0
1
1
0
0
0
0
0
0
0
0
0
0
0
0
0
0
0
0
0
0
0
0
1
1
0
0
0
0
0
0
0
0
0
0
0
0
0
0
0
0
0
0
0
0
0
0
0
0
0
0
0
0
0
0
0
0
0
1
1
0
0
0
0
0
0
0
0
0
0
0
0
0
0
0
0
0
0
0
0
1
1
0
0
0
0
0
0
0
0
0
0
0
0
0
0
0
0
0
0
0
0
0
0
0
0
0
0
0
0
0
0
0
0
0
1
1
0
0
0
0
0
0
0
0
0
0
0
0
0
0
0
0
0
0
0
0
1
1
0
0
0
0
0
0
0
0
0
0
0
0
0
0
0
0
0
0
0
0
0
0
0
0
0
0
0
0
0
0
0
0
0
1
1
0
0
0
0
0
0
0
0
0
0
0
0
0
0
0
0
0
0
0
0
1
1
0
0
0
0
0
0
0
0
0
0
0
0
0
0
0
0
0
0
0
0
0
0
0
0
0
0
0
0
0
0
0
0
0
1
1
0
0
0
0
0
0
0
0
0
0
0
0
0
0
0
0
0
0
0
0
1
1
0
0
0
0
0
0
0
0
0
0
0
0
0
0
0
0
0
0
0
0
0
0
0
0
0
0
0
0
0
0
0
0
0
1
1
0
0
0
0
0
0
0
0
0
0
0
0
0
0
0
0
0
0
0
0
1
1
0
0
0
0
0
0
0
0
0
0
0
0
0
0
0
0
0
0
0
0
0
0
0
0
0
0
0
0
0
0
0
0
0
1
1
0
0
0
0
0
0
0
0
0
0
0
0
0
0
0
0
0
0
0
0
1
1
0
0
0
0
0
0
0
0
0
0
0
0
0
0
0
0
0
0
0
0
0
0
0
0
0
0
0
0
0
0
0
0
0
1
1
0
0
0
0
0
0
0
0
0
0
0
0
0
0
0
0
0
0
0
0
1
1
0
0
0
0
0
0
0
0
0
0
0
0
0
0
0
0
0
0
0
0
0
0
0
0
0
0
0
0
0
0
0
0
0
1
1
0
0
0
0
0
0
0
0
0
0
0
0
0
0
0
0
0
0
0
0
0
1
1
0
0
0
0
0
0
0
0
0
0
0
0
0
0
0
0
0
0
0
0
0
0
0
0
0
0
0
0
0
0
0
0
0
0
1
1
0
0
0
0
0
0
0
0
0
0
0
0
0
0
0
0
0
0
0
0
0
0
0
0
0
0
0
0
0
0
0
0
0
0
0
0
0
0
0
0
0
0
0
0
0
0
0
0
0
0
0
0
0
0
0
0
0
1
1
0
0
0
0
0
0
0
0
0
0
0
0
0
0
0
0
0
0
0
0
0
0
0
0
0
0
0
0
0
0
0
0
0
0
0
0
0
0
0
0
0
0
0
0
0
0
0
0
0
0
0
0
0
0
0
0
0
1
1
0
0
0
0
0
0
0
0
0
0
0
0
0
0
0
0
0
0
0
0
0
0
0
0
0
0
0
0
0
0
0
0
0
0
0
0
0
0
0
0
0
0
0
0
0
0
0
0
0
0
0
0
0
0
0
0
0
1
1
0
0
0
0
0
0
0
0
0
0
0
0
0
0
0
0
0
0
0
0
0
0
0
0
0
0
0
0
0
0
0
0
0
0
0
0
0
0
0
0
0
0
0
0
0
0
0
0
0
0
0
0
0
0
0
0
0
1
1
0
0
0
0
0
0
0
0
0
0
0
0
0
0
0
0
0
0
0
0
0
0
0
0
0
0
0
0
0
0
0
0
0
0
0
0
0
0
0
0
0
0
0
0
0
0
0
0
0
0
0
0
0
0
0
0
0
1
1
0
0
0
0
0
0
0
0
0
0
0
0
0
0
0
0
0
0
0
0
0
0
0
0
0
0
0
0
0
0
0
0
0
0
0
0
0
0
0
0
0
0
0
0
0
0
0
0
0
0
0
0
0
0
0
0
0
1
1
0
0
0
0
0
0
0
0
0
0
0
0
0
0
0
0
0
0
0
0
0
0
0
0
0
0
0
0
0
0
0
0
0
0
0
0
0
0
0
0
0
0
0
0
0
0
0
0
0
0
0
0
0
0
0
0
0
1
1
0
0
0
0
0
0
0
0
0
0
0
0
0
0
0
0
0
0
0
0
0
0
0
0
0
0
0
0
0
0
0
0
0
0
0
0
0
0
0
0
0
0
0
0
0
0
0
0
0
0
0
0
0
0
0
0
0
1
1
0
0
0
0
0
0
0
0
0
0
0
0
0
0
0
0
0
0
0
0
0
0
0
0
0
0
0
0
0
0
0
0
0
0
0
0
0
0
0
0
0
0
0
0
0
0
0
0
0
0
0
0
0
0
0
0
0
1
1
0
0
0
0
0
0
0
0
0
0
0
0
0
0
0
0
0
0
0
0
0
0
0
0
0
0
0
0
0
0
0
0
0
0
0
0
0
0
0
0
0
0
0
0
0
0
0
0
0
0
0
0
0
0
0
0
0
1
1
0
0
0
0
0
0
0
0
0
0
0
0
0
0
0
0
0
0
0
0
0
1
1
0
0
0
0
0
0
0
0
0
0
0
0
0
0
0
0
0
0
0
0
0
0
0
0
0
0
0
0
0
0
0
0
0
0
1
1
0
0
0
0
0
0
0
0
0
0
0
0
0
0
0
0
0
0
0
0
1
1
0
0
0
0
0
0
0
0
0
0
0
0
0
0
0
0
0
0
0
0
0
0
0
0
0
0
0
0
0
0
0
0
0
1
1
0
0
0
0
0
0
0
0
0
0
0
0
0
0
0
0
0
0
0
0
1
1
0
0
0
0
0
0
0
0
0
0
0
0
0
0
0
0
0
0
0
0
0
0
0
0
0
0
0
0
0
0
0
0
0
1
1
0
0
0
0
0
0
0
0
0
0
0
0
0
0
0
0
0
0
0
0
1
1
0
0
0
0
0
0
0
0
0
0
0
0
0
0
0
0
0
0
0
0
0
0
0
0
0
0
0
0
0
0
0
0
0
1
1
0
0
0
0
0
0
0
0
0
0
0
0
0
0
0
0
0
0
0
0
1
1
0
0
0
0
0
0
0
0
0
0
0
0
0
0
0
0
0
0
0
0
0
0
0
0
0
0
0
0
0
0
0
0
0
1
1
0
0
0
0
0
0
0
0
0
0
0
0
0
0
0
0
0
0
0
0
1
1
0
0
0
0
0
0
0
0
0
0
0
0
0
0
0
0
0
0
0
0
0
0
0
0
0
0
0
0
0
0
0
0
0
1
1
0
0
0
0
0
0
0
0
0
0
0
0
0
0
0
0
0
0
0
0
1
1
0
0
0
0
0
0
0
0
0
0
0
0
0
0
0
0
0
0
0
0
0
0
0
0
0
0
0
0
0
0
0
0
0
1
1
0
0
0
0
0
0
0
0
0
0
0
0
0
0
0
0
0
0
0
0
1
1
0
0
0
0
0
0
0
0
0
0
0
0
0
0
0
0
0
0
0
0
0
0
0
0
0
0
0
0
0
0
0
0
0
1
1
0
0
0
0
0
0
0
0
0
0
0
0
0
0
0
0
0
0
0
0
1
1
0
0
0
0
0
0
0
0
0
0
0
0
0
0
0
0
0
0
0
0
0
0
0
0
0
0
0
0
0
0
0
0
0
1
1
0
0
0
0
0
0
0
0
0
0
0
0
0
0
0
0
0
0
0
0
1
1
0
0
0
0
0
0
0
0
0
0
0
0
0
0
0
0
0
0
0
0
0
0
0
0
0
0
0
0
0
0
0
0
0
1
1
0
0
0
0
0
0
0
0
0
0
0
0
0
0
0
0
0
0
0
0
1
1
0
0
0
0
0
0
0
0
0
0
0
0
0
0
0
0
0
0
0
0
0
0
0
0
0
0
0
0
0
0
0
0
0
1
1
0
0
0
0
0
0
0
0
0
0
0
0
0
0
0
0
0
0
0
0
1
1
0
0
0
0
0
0
0
0
0
0
0
0
0
0
0
0
0
0
0
0
0
0
0
0
0
0
0
0
0
0
0
0
0
1
1
0
0
0
0
0
0
0
0
0
0
0
0
0
0
0
0
0
0
0
0
1
1
0
0
0
0
0
0
0
0
0
0
0
0
0
0
0
0
0
0
0
0
0
0
0
0
0
0
0
0
0
0
0
0
0
1
1
0
0
0
0
0
0
0
0
0
0
0
0
0
0
0
0
0
0
0
0
1
1
0
0
0
0
0
0
0
0
0
0
0
0
0
0
0
0
0
0
0
0
0
0
0
0
0
0
0
0
0
0
0
0
0
1
1
0
0
0
0
0
0
0
0
0
0
0
0
0
0
0
0
0
0
0
0
1
1
0
0
0
0
0
0
0
0
0
0
0
0
0
0
0
0
0
0
0
0
0
0
0
0
0
0
0
0
0
0
0
0
0
1
1
0
0
0
0
0
0
0
0
0
0
0
0
0
0
0
0
0
0
0
0
1
1
0
0
0
0
0
0
0
0
0
0
0
0
0
0
0
0
0
0
0
0
0
0
0
0
0
0
0
0
0
0
0
0
0
1
1
0
0
0
0
0
0
0
0
0
0
0
0
0
0
0
0
0
0
0
0
1
1
0
0
0
0
0
0
0
0
0
0
0
0
0
0
0
0
0
0
0
0
0
0
0
0
0
0
0
0
0
0
0
0
0
1
1
0
0
0
0
0
0
0
0
0
0
0
0
0
0
0
0
0
0
0
0
1
1
0
0
0
0
0
0
0
0
0
0
0
0
0
0
0
0
0
0
0
0
0
0
0
0
0
0
0
0
0
0
0
0
0
1
1
0
0
0
0
0
0
0
0
0
0
0
0
0
0
0
0
0
0
0
0
1
1
0
0
0
0
0
0
0
0
0
0
0
0
0
0
0
0
0
0
0
0
0
0
0
0
0
0
0
0
0
0
0
0
0
1
1
0
0
0
0
0
0
0
0
0
0
0
0
0
0
0
0
0
0
0
0
1
1
0
0
0
0
0
0
0
0
0
0
0
0
0
0
0
0
0
0
0
0
0
0
0
0
0
0
0
0
0
0
0
0
0
1
1
0
0
0
0
0
0
0
0
0
0
0
0
0
0
0
0
0
0
0
0
1
1
0
0
0
0
0
0
0
0
0
0
0
0
0
0
0
0
0
0
0
0
0
0
0
0
0
0
0
0
0
0
0
0
0
1
1
0
0
0
0
0
0
0
0
0
0
0
0
0
0
0
0
0
0
0
0
1
1
0
0
0
0
0
0
0
0
0
0
0
0
0
0
0
0
0
0
0
0
0
0
0
0
0
0
0
0
0
0
0
0
0
1
1
1
1
1
1
1
1
1
1
1
1
1
1
1
1
1
1
1
1
1
1
1
1
1
1
1
1
1
1
1
1
1
1
1
1
1
1
1
1
1
1
1
1
1
1
1
1
1
1
1
1
1
1
1
1
1
1
				</DataArray>
				<DataArray type="Float64" Name="h" NumberOfComponents="1" Format="ascii">
1.1961816647
1.1953406574
1.1959358707
1.1971043741
1.1988043919
1.2009781133
1.2035561167
1.2064621484
1.2096171814
1.2129419006
1.2163584412
1.2197908665
1.2231645765
1.2264061408
1.2294433047
1.2322054500
1.2346254120
1.2366420403
1.2382028889
1.2392667909
1.2398057731
1.2398057731
1.1371727293
1.1431219859
1.1455088897
1.1499719920
1.1559688664
1.1628590798
1.1700373590
1.1770286910
1.1835304653
1.1894020330
1.1946261804
1.1992632820
1.2034095985
1.2071687298
1.2106345396
1.2138828246
1.2169703648
1.2199363465
1.2228051199
1.2255901736
1.2282964208
1.2309219063
1.2334598166
1.2358987781
1.2382231229
1.2404140700
1.2424498180
1.2443061492
1.2459581979
1.2473811626
1.2485514839
1.2494488650
1.2500568583
1.2503637140
1.2503637140
1.1953406574
1.1945042465
1.1950561212
1.1961411787
1.1977237254
1.1997542557
1.2021730138
1.2049137897
1.2079070665
1.2110817237
1.2143661908
1.2176886128
1.2209761935
1.2241551767
1.2271511766
1.2298900864
1.2323004295
1.2343164495
1.2358813090
1.2369501402
1.2374922920
1.2398057731
1.1431219859
1.1494307492
1.1515521745
1.1555062931
1.1607959330
1.1668470962
1.1731325951
1.1792525600
1.1849632781
1.1901598673
1.1948380462
1.1990533558
1.2028862751
1.2064197626
1.2097265421
1.2128634174
1.2158715006
1.2187778484
1.2215979152
1.2243389694
1.2270017784
1.2295817969
1.2320707774
1.2344567895
1.2367243199
1.2388553613
1.2408294323
1.2426241148
1.2442167329
1.2455849148
1.2467075929
1.2475668274
1.2481481674
1.2484413118
1.2503637140
1.1948565028
1.1939841663
1.1945346690
1.1956172590
1.1971967277
1.1992241318
1.2016402213
1.2043791254
1.2073714347
1.2105459049
1.2138306569
1.2171534208
1.2204409709
1.2236191899
1.2266134683
1.2293496600
1.2317564567
1.2337684818
1.2353294584
1.2363951734
1.2369355808
1.2392419878
1.1431784190
1.1494299875
1.1515205305
1.1554236801
1.1606591676
1.1666693024
1.1729373668
1.1790662854
1.1848087880
1.1900529216
1.1947865574
1.1990584347
1.2029440625
1.2065233170
1.2098673994
1.2130326834
1.2160605155
1.2189785099
1.2218027733
1.2245412063
1.2271951487
1.2297605897
1.2322298375
1.2345915986
1.2368311383
1.2389314049
1.2408730546
1.2426349682
1.2441958759
1.2455348443
1.2466321910
1.2474712170
1.2480384836
1.2483244061
1.2502316556
1.1939115226
1.1929693808
1.1935169183
1.1945941284
1.1961667714
1.1981870377
1.2005967105
1.2033306367
1.2063196743
1.2094923899
1.2127763456
1.2160984924
1.2193847850
1.2225604095
1.2255503202
1.2282802932
1.2306793488
1.2326828601
1.2342356653
1.2352948649
1.2358316362
1.2381244228
1.1432908478
1.1494313906
1.1514611696
1.1552636260
1.1603913106
1.1663185594
1.1725496824
1.1786937931
1.1844972336
1.1898344534
1.1946778700
1.1990625996
1.2030540376
1.2067256700
1.2101454410
1.2133687007
1.2164371563
1.2193794806
1.2222130686
1.2249470983
1.2275840831
1.2301211177
1.2325516559
1.2348657069
1.2370501090
1.2390897256
1.2409674772
1.2426648175
1.2441632538
1.2454446854
1.2464921548
1.2472913991
1.2478309657
1.2481026754
1.2499793527
1.1925506385
1.1915087914
1.1920513801
1.1931195092
1.1946803849
1.1966879094
1.1990854625
1.2018090521
1.2047900568
1.2079568980
1.2112364391
1.2145545864
1.2178361620
1.2210053711
1.2239865446
1.2267053424
1.2290912592
1.2310807656
1.2326203574
1.2336691144
1.2342000812
1.2364736445
1.1434582103
1.1494403184
1.1513814468
1.1550360308
1.1600034391
1.1658045464
1.1719753265
1.1781355754
1.1840238341
1.1894955401
1.1945005937
1.1990536877
1.2032046544
1.2070168490
1.2105528052
1.2138659200
1.2169981604
1.2199796328
1.2228296138
1.2255592191
1.2281727882
1.2306691581
1.2330435851
1.2352880988
1.2373919375
1.2393428450
1.2411271118
1.2427299918
1.2441370718
1.2453343959
1.2463089818
1.2470501138
1.2475492267
1.2478001830
1.2496302844
1.1908362119
1.1896703712
1.1902055397
1.1912598937
1.1928025410
1.1947896697
1.1971668493
1.1998717684
1.2028366957
1.2059900955
1.2092581451
1.2125655811
1.2158358940
1.2189921026
1.2219577670
1.2246583984
1.2270240904
1.2289927294
1.2305129926
1.2315466194
1.2320692110
1.2343191764
1.1436778662
1.1494630215
1.1512905941
1.1547540872
1.1595109525
1.1651412567
1.1712231562
1.1773930228
1.1833821869
1.1890233669
1.1942378299
1.1990132200
1.2033780032
1.2073810682
1.2110767646
1.2145150893
1.2177377999
1.2207765939
1.2236531298
1.2263811221
1.2289674482
1.2314134112
1.2337168155
1.2358725034
1.2378729852
1.2397098596
1.2413738637
1.2428552142
1.2441447855
1.2452339658
1.2461148776
1.2467813476
1.2472285006
1.2474528053
1.2492193531
1.1888432409
1.1875359958
1.1880607790
1.1890956477
1.1906120234
1.1925689243
1.1949147127
1.1975893403
1.2005264540
1.2036549089
1.2069003870
1.2101865036
1.2134353655
1.2165687050
1.2195092223
1.2221822588
1.2245186072
1.2264578484
1.2279513440
1.2289641980
1.2294753309
1.2316986351
1.1439443435
1.1495046039
1.1511976335
1.1544322792
1.1589319801
1.1643461285
1.1703050514
1.1764689980
1.1825650843
1.1884018967
1.1938674280
1.1989161439
1.2035490773
1.2077956382
1.2116984302
1.2153018960
1.2186465802
1.2217655855
1.2246832797
1.2274165939
1.2299756989
1.2323651768
1.2345862273
1.2366373840
1.2385153545
1.2402165778
1.2417372795
1.2430737245
1.2442231716
1.2451834185
1.2459526814
1.2465301893
1.2469154459
1.2471080076
1.2487925714
1.1866544796
1.1851961042
1.1857071224
1.1867159229
1.1881965863
1.1901114438
1.1924122276
1.1950417688
1.1979356793
1.2010237066
1.2042314162
1.2074815429
1.2106949282
1.2137920485
1.2166947296
1.2193281398
1.2216238419
1.2235233406
1.2249811565
1.2259665034
1.2264624931
1.2286572370
1.1442481389
1.1495668982
1.1511090703
1.1540839489
1.1582851556
1.1634384552
1.1692352045
1.1753679120
1.1815650027
1.1876123018
1.1933619783
1.1987301920
1.2036844880
1.2082291570
1.2123905997
1.2162046631
1.2197089511
1.2229372793
1.2259167548
1.2286680187
1.2312052868
1.2335372996
1.2356695924
1.2376053544
1.2393464707
1.2408952154
1.2422543058
1.2434270555
1.2444180849
1.2452325241
1.2458755226
1.2463524312
1.2466677019
1.2468243752
1.2484065255
1.1843550353
1.1827437687
1.1832373524
1.1842128699
1.1856473183
1.1875067319
1.1897467281
1.1923136279
1.1951456594
1.1981740948
1.2013249399
1.2045204865
1.2076806155
1.2107247242
1.2135738388
1.2161529752
1.2183945042
1.2202420217
1.2216536516
1.2226035241
1.2230799843
1.2252451291
1.1445734942
1.1496452890
1.1510254718
1.1537176277
1.1575860347
1.1624364169
1.1680281997
1.1740949499
1.1803741854
1.1866333845
1.1926890472
1.1984155705
1.2037414630
1.2086398638
1.2131156250
1.2171919328
1.2209008018
1.2242753638
1.2273450315
1.2301343984
1.2326623860
1.2349427845
1.2369864668
1.2388023118
1.2403984070
1.2417838615
1.2429688445
1.2439646327
1.2447840638
1.2454403838
1.2459463694
1.2463140770
1.2465533639
1.2466710703
1.2481278182
1.1820283348
1.1802701848
1.1807425225
1.1816772010
1.1830542902
1.1848438043
1.1870056660
1.1894902506
1.1922390767
1.1951856676
1.1982571784
1.2013760810
1.2044617848
1.2074329395
1.2102099436
1.2127177060
1.2148894017
1.2166708102
1.2180240648
1.2189291140
1.2193808343
1.2215157760
1.1448959015
1.1497253666
1.1509377857
1.1533329067
1.1568427592
1.1613530834
1.1666959562
1.1726543004
1.1789840773
1.1854417559
1.1918114786
1.1979248392
1.2036669824
1.2089739445
1.2138229827
1.2182194969
1.2221861763
1.2257531532
1.2289510427
1.2318082086
1.2343487177
1.2365922202
1.2385559287
1.2402554750
1.2417061968
1.2429250279
1.2439304998
1.2447426780
1.2453833550
1.2458745412
1.2462371993
1.2464905510
1.2466502141
1.2467270726
1.2480323968
1.1797533883
1.1778614800
1.1783087558
1.1791949737
1.1805033333
1.1822079842
1.1842734613
1.1866546829
1.1892971150
1.1921373105
1.1951043991
1.1981218130
1.2011091497
1.2039847900
1.2066687710
1.2090859598
1.2111702727
1.2128696632
1.2141506279
1.2149999658
1.2154207590
1.2175248502
1.1451800134
1.1497801333
1.1508240685
1.1529163883
1.1560512876
1.1601913835
1.1652431534
1.1710456956
1.1773832659
1.1840109760
1.1906871712
1.1972026674
1.2033969825
1.2091638997
1.2144467610
1.2192271231
1.2235134417
1.2273294215
1.2307048786
1.2336711305
1.2362574327
1.2384898929
1.2403929704
1.2419900785
1.2433048311
1.2443629404
1.2451921447
1.2458220269
1.2462839508
1.2466092092
1.2468273810
1.2469651973
1.2470443001
1.2470797978
1.2482043990
1.1776020796
1.1755956319
1.1760141238
1.1768444006
1.1780727614
1.1796775357
1.1816280638
1.1838842034
1.1863959783
1.1891037619
1.1919395551
1.1948286505
1.1976916317
1.2004472177
1.2030154295
1.2053211609
1.2072989243
1.2088986988
1.2100916195
1.2108725446
1.2112549921
1.2133271148
1.1453760814
1.1497659882
1.1506450793
1.1524365830
1.1551895417
1.1589378428
1.1636612791
1.1692596378
1.1755545354
1.1823105777
1.1892696687
1.1961872446
1.2028578043
1.2091294295
1.2149056511
1.2201375702
1.2248134139
1.2289458075
1.2325606670
1.2356905891
1.2383694653
1.2406300809
1.2425048296
1.2440258105
1.2452258573
1.2461403340
1.2468069362
1.2472653759
1.2475570707
1.2477229725
1.2478015725
1.2478273380
1.2478281058
1.2478233272
1.2487347495
1.1756379734
1.1735410184
1.1739271583
1.1746942882
1.1758317132
1.1773219002
1.1791390911
1.1812483899
1.1836049242
1.1861536561
1.1888303827
1.1915632275
1.1942746551
1.1968844209
1.1993129282
1.2014851432
1.2033359076
1.2048168840
1.2059039904
1.2066015730
1.2069366267
1.2089748605
1.1454165655
1.1496191937
1.1503404249
1.1518394072
1.1542120685
1.1575565397
1.1619224510
1.1672720166
1.1734712468
1.1803047972
1.1875091982
1.1948130030
1.2019696691
1.2087807549
1.2151054451
1.2208578997
1.2259993821
1.2305256303
1.2344543511
1.2378166994
1.2406498501
1.2429929302
1.2448865878
1.2463722754
1.2474928237
1.2482939802
1.2488240047
1.2491331933
1.2492733280
1.2492952235
1.2492464137
1.2491691832
1.2490976208
1.2490555599
1.2497188825
1.1739159162
1.1717558097
1.1721062028
1.1728033114
1.1738393206
1.1752007433
1.1768667545
1.1788079387
1.1809850084
1.1833482381
1.1858381324
1.1883866371
1.1909190368
1.1933568678
1.1956213277
1.1976374394
1.1993399322
1.2006815259
1.2016428332
1.2022393488
1.2025157411
1.2045171546
1.1452142601
1.1492541472
1.1498265664
1.1510455684
1.1530464892
1.1559845174
1.1599741034
1.1650388867
1.1710933479
1.1779508595
1.1853537319
1.1930142155
1.2006519716
1.2080245056
1.2149445068
1.2212838108
1.2269699278
1.2319750904
1.2363033549
1.2399805758
1.2430448961
1.2455407145
1.2475167275
1.2490240412
1.2501159901
1.2508492116
1.2512829232
1.2514782385
1.2514973801
1.2514009902
1.2512455481
1.2510810334
1.2509476788
1.2508736260
1.2512529135
1.1724807519
1.1702865776
1.1705979930
1.1712185374
1.1721431526
1.1733622989
1.1748600918
1.1766127890
1.1785871134
1.1807393173
1.1830154767
1.1853523209
1.1876788803
1.1899192089
1.1919956774
1.1938332421
1.1953658339
1.1965461946
1.1973591370
1.1978331558
1.1980364270
1.1999969870
1.1446595722
1.1485610943
1.1489946622
1.1499484585
1.1515912587
1.1541292288
1.1577361499
1.1624938266
1.1683658936
1.1751998350
1.1827530686
1.1907324808
1.1988335365
1.2067755525
1.2143258295
1.2213107728
1.2276183577
1.2331906172
1.2380117613
1.2420974478
1.2454834445
1.2482174794
1.2503554080
1.2519577788
1.2530885461
1.2538154140
1.2542086483
1.2543401064
1.2542822059
1.2541050545
1.2538736607
1.2536452859
1.2534659615
1.2533678935
1.2534284706
1.1713666675
1.1691675947
1.1694369546
1.1699747199
1.1707785015
1.1718426424
1.1731562250
1.1747013646
1.1764511812
1.1783685066
1.1804057739
1.1825053796
1.1846009560
1.1866197463
1.1884855888
1.1901230912
1.1914643721
1.1924605758
1.1930995219
1.1934245719
1.1935355160
1.1954500533
1.1436209478
1.1474072409
1.1477120941
1.1484161829
1.1497181255
1.1518711952
1.1551035926
1.1595505201
1.1652221261
1.1720012119
1.1796659878
1.1879271179
1.1964661115
1.2049726633
1.2131734625
1.2208498113
1.2278467502
1.2340705157
1.2394793012
1.2440730233
1.2478808010
1.2509508068
1.2533443364
1.2551304961
1.2563834358
1.2571816446
1.2576061105
1.2577389531
1.2576621188
1.2574543922
1.2571884762
1.2569281146
1.2567244705
1.2566133388
1.2563249486
1.1705964568
1.1684200780
1.1686444657
1.1690935956
1.1697677228
1.1706650795
1.1717797975
1.1731000579
1.1746057440
1.1762668029
1.1780427121
1.1798823008
1.1817245379
1.1835004113
1.1851353913
1.1865532482
1.1876828555
1.1884713179
1.1889070858
1.1890498015
1.1890419976
1.1909041581
1.1419511938
1.1456439158
1.1458302879
1.1463002107
1.1472816525
1.1490741685
1.1519568483
1.1561127776
1.1615930765
1.1683125438
1.1760708909
1.1845877945
1.1935394939
1.2025958436
1.2114510693
1.2198459515
1.2275830334
1.2345297865
1.2406134598
1.2458127829
1.2501453508
1.2536559868
1.2564087497
1.2584795562
1.2599515935
1.2609132270
1.2614552887
1.2616691619
1.2616451466
1.2614694123
1.2612210331
1.2609689867
1.2607685222
1.2606582752
1.2599989420
1.1701794085
1.1680501717
1.1682268804
1.1685819843
1.1691184386
1.1698384638
1.1707414038
1.1718217582
1.1730665305
1.1744532515
1.1759490113
1.1775096861
1.1790801539
1.1805955430
1.1819829540
1.1831645903
1.1840641434
1.1846211243
1.1848203195
1.1847376299
1.1845732409
1.1863752969
1.1394967182
1.1431167001
1.1431961244
1.1434485475
1.1441345584
1.1456026258
1.1481808407
1.1520943028
1.1574270896
1.1641182538
1.1719841002
1.1807531084
1.1901012769
1.1996876799
1.2091845614
1.2183012032
1.2268031240
1.2345203571
1.2413470985
1.2472366925
1.2521903638
1.2562450852
1.2594639629
1.2619268962
1.2637239682
1.2649516592
1.2657090456
1.2660951501
1.2662068858
1.2661359970
1.2659661278
1.2657698112
1.2656049834
1.2655121160
1.2644721554
1.1701095405
1.1680473462
1.1681739931
1.1684303759
1.1688222888
1.1693561381
1.1700367272
1.1708651739
1.1718359491
1.1729345600
1.1741361443
1.1754040653
1.1766894893
1.1779318937
1.1790598233
1.1799929317
1.1806472330
1.1809496561
1.1808740245
1.1805090774
1.1801316261
1.1818640302
1.1361148323
1.1396835794
1.1396717537
1.1397276076
1.1401523025
1.1413492088
1.1436946499
1.1474492007
1.1527194760
1.1594569155
1.1674840211
1.1765319304
1.1862765051
1.1963726458
1.2064819353
1.2162950078
1.2255513651
1.2340505724
1.2416561383
1.2482945200
1.2539467193
1.2586370909
1.2624230663
1.2653844077
1.2676146651
1.2692155316
1.2702917918
1.2709477443
1.2712845981
1.2713974148
1.2713722561
1.2712832546
1.2711894227
1.2711319182
1.2697173860
1.1703638976
1.1683829685
1.1684576719
1.1686116804
1.1688538379
1.1691950147
1.1696457896
1.1702142316
1.1709026044
1.1717047016
1.1726040049
1.1735716240
1.1745651964
1.1755285675
1.1763913624
1.1770694767
1.1774681986
1.1774951609
1.1771014191
1.1763779937
1.1756996860
1.1773502314
1.1316965808
1.1352385172
1.1351603142
1.1350502499
1.1352645413
1.1362699606
1.1384897169
1.1422112301
1.1475501768
1.1544546773
1.1627384782
1.1721242460
1.1822831747
1.1928694594
1.2035448123
1.2139965743
1.2239541842
1.2331997741
1.2415741871
1.2489796194
1.2553751967
1.2607683551
1.2652053750
1.2687603652
1.2715253391
1.2736028423
1.2750996535
1.2761221342
1.2767729313
1.2771478814
1.2773332099
1.2774027031
1.2774149002
1.2774105592
1.2756450970
1.1709005629
1.1690087705
1.1690303625
1.1690797943
1.1691692097
1.1693142641
1.1695316552
1.1698367367
1.1702398512
1.1707433029
1.1713390912
1.1720061815
1.1727087018
1.1733947309
1.1739944716
1.1744186860
1.1745584241
1.1742934239
1.1735338235
1.1723485521
1.1712268205
1.1727791383
1.1261785110
1.1297239115
1.1296223265
1.1293968272
1.1294833795
1.1304205522
1.1326726444
1.1365399450
1.1421289628
1.1493652495
1.1580362858
1.1678429725
1.1784451305
1.1894977005
1.2006722836
1.2116691559
1.2222268210
1.2321280389
1.2412046935
1.2493423299
1.2564799082
1.2626051141
1.2677474416
1.2719686136
1.2753524231
1.2779962318
1.2800037280
1.2814792007
1.2825234143
1.2832303725
1.2836844267
1.2839574388
1.2841063200
1.2841706646
1.2820946359
1.1716582080
1.1698569475
1.1698251694
1.1697696333
1.1697060213
1.1696550693
1.1696398976
1.1696834249
1.1698042934
1.1700134742
1.1703116018
1.1706855717
1.1711060142
1.1715251277
1.1718732150
1.1720545124
1.1719420356
1.1713772153
1.1702028152
1.1684160779
1.1666089070
1.1680398511
1.1195183935
1.1231074983
1.1230629031
1.1228161173
1.1229226532
1.1239932309
1.1265148113
1.1307754927
1.1368475303
1.1446127643
1.1538167380
1.1641287040
1.1751933282
1.1866690026
1.1982467356
1.2096553573
1.2206619621
1.2310702520
1.2407207477
1.2494944543
1.2573157738
1.2641522602
1.2700117756
1.2749363562
1.2789935344
1.2822678846
1.2848535795
1.2868478318
1.2883458798
1.2894374411
1.2902034479
1.2907129207
1.2910206460
1.2911648085
1.2888312441
1.1725576536
1.1708423470
1.1707579398
1.1705989902
1.1703848522
1.1701414926
1.1698985830
1.1696867086
1.1695328787
1.1694568001
1.1694679004
1.1695613005
1.1697145944
1.1698846854
1.1700023820
1.1699649075
1.1696240333
1.1687713169
1.1671456917
1.1645790451
1.1616586159
1.1629334456
1.1115291649
1.1152203010
1.1154216185
1.1153768389
1.1158082340
1.1173694433
1.1205263454
1.1255144259
1.1323427426
1.1408343785
1.1506891000
1.1615475669
1.1730458889
1.1848544510
1.1966944122
1.2083367549
1.2195935983
1.2303078232
1.2403462314
1.2495994535
1.2579860012
1.2654557770
1.2719920083
1.2776103438
1.2823536453
1.2862852585
1.2894825752
1.2920302059
1.2940141420
1.2955176922
1.2966174378
1.2973793736
1.2978563595
1.2980854562
1.2955530438
1.1735066708
1.1718678985
1.1717325642
1.1714735420
1.1711137291
1.1706840888
1.1702204820
1.1697606933
1.1693395595
1.1689850239
1.1687150799
1.1685333914
1.1684257536
1.1683563982
1.1682608806
1.1680349701
1.1675140703
1.1664361457
1.1643959345
1.1608947721
1.1561082310
1.1571702347
1.1010955273
1.1049917880
1.1062177566
1.1071162825
1.1085979776
1.1113054960
1.1156386154
1.1217517160
1.1295846794
1.1389164018
1.1494267699
1.1607555094
1.1725533954
1.1845194419
1.1964164156
1.2080664370
1.2193357717
1.2301173986
1.2403167920
1.2498461412
1.2586272320
1.2665969258
1.2737133595
1.2799611867
1.2853515289
1.2899187713
1.2937166157
1.2968118205
1.2992777609
1.3011896604
1.3026193192
1.3036300159
1.3042732952
1.3045856738
1.3019101905
1.1744096111
1.1728346842
1.1726511605
1.1722972504
1.1717987997
1.1711908057
1.1705139140
1.1698112038
1.1691228383
1.1684818396
1.1679110193
1.1674184214
1.1669940851
1.1666074407
1.1662017822
1.1656862608
1.1649189020
1.1636641330
1.1614948891
1.1575977509
1.1507008911
1.1514467282
1.0819245075
1.0862945152
1.0942038409
1.0988556742
1.1029315784
1.1076842528
1.1136899651
1.1211299878
1.1299493591
1.1399523855
1.1508620188
1.1623662170
1.1741624141
1.1859943491
1.1976711147
1.2090643927
1.2200913233
1.2306935976
1.2408173963
1.2504014194
1.2593767780
1.2676721728
1.2752227258
1.2819809907
1.2879227807
1.2930487717
1.2973843319
1.3009747011
1.3038782839
1.3061610964
1.3078899453
1.3091257026
1.3099190945
1.3103065371
1.3075331379
1.1751804193
1.1736551541
1.1734279466
1.1729876736
1.1723621241
1.1715886927
1.1707103537
1.1697718969
1.1688135090
1.1678652324
1.1669420573
1.1660357107
1.1651052552
1.1640634893
1.1627496203
1.1608794798
1.1579459065
1.1530024743
1.1441817223
1.1275547634
1.0943083007
1.0251686066
0.9524684145
1.0216842863
1.1206099911
1.1095490859
1.1066550281
1.1062004972
1.1081672334
1.1123365087
1.1183972822
1.1260214551
1.1349150410
1.1448158155
1.1554634601
1.1665872828
1.1779243326
1.1892505131
1.2004041161
1.2112872277
1.2218494919
1.2320663827
1.2419150217
1.2513564541
1.2603316596
1.2687645494
1.2765713636
1.2836759214
1.2900206838
1.2955732699
1.3003305319
1.3043156808
1.3075716421
1.3101548267
1.3121267652
1.3135457182
1.3144614231
1.3149100645
1.3120688294
1.1757540009
1.1742643680
1.1740011240
1.1734893902
1.1727581359
1.1718460599
1.1707971109
1.1696563145
1.1684625299
1.1672420928
1.1660031461
1.1647259977
1.1633523047
1.1617706908
1.1597894545
1.1570925672
1.1531629099
1.1471334462
1.1375046113
1.1215974601
1.0945797583
1.0493036135
0.9572151829
1.0259091593
1.0819906766
1.0913089895
1.0980709744
1.1037084301
1.1097575091
1.1167055928
1.1245253045
1.1330499140
1.1421661450
1.1518196195
1.1619399727
1.1723975936
1.1830187903
1.1936297147
1.2040973589
1.2143434936
1.2243348562
1.2340645933
1.2435270410
1.2526964634
1.2615201964
1.2699192133
1.2777967983
1.2850561454
1.2916148574
1.2974150441
1.3024308421
1.3066672703
1.3101538097
1.3129378298
1.3150751467
1.3166204405
1.3176213457
1.3181128861
1.3152194629
1.1760877031
1.1746210496
1.1743327730
1.1737713069
1.1729662944
1.1719571294
1.1707882061
1.1695046022
1.1681444165
1.1667321891
1.1652733854
1.1637447738
1.1620844191
1.1601797909
1.1578450208
1.1547876179
1.1505560286
1.1444429702
1.1353235881
1.1213954936
1.0998718081
1.0679022233
1.0098629850
1.0407656407
1.0749314609
1.0867679534
1.0959103826
1.1043823749
1.1132185138
1.1224970231
1.1319038174
1.1411890764
1.1503572007
1.1595762094
1.1689963357
1.1786509862
1.1884649834
1.1983139690
1.2080858422
1.2177093869
1.2271527014
1.2364095676
1.2454754556
1.2543252946
1.2629058851
1.2711352338
1.2789103007
1.2861252037
1.2926866227
1.2985249018
1.3036029302
1.3079156720
1.3114838488
1.3143475016
1.3165563589
1.3181600121
1.3192021375
1.3197150242
1.3167765189
1.1761574820
1.1747031384
1.1744032387
1.1738185928
1.1729790313
1.1719240752
1.1706980862
1.1693460018
1.1679055359
1.1664006792
1.1648366560
1.1631907489
1.1614034720
1.1593692516
1.1569176787
1.1537882638
1.1495941156
1.1437558401
1.1354024901
1.1232380316
1.1054439210
1.0805709282
1.0403719702
1.0514092750
1.0720151391
1.0841644058
1.0950077361
1.1057969352
1.1170022086
1.1282810264
1.1390164289
1.1488657601
1.1579508004
1.1666619656
1.1753670861
1.1842548317
1.1933389713
1.2025347876
1.2117405567
1.2208798259
1.2299077583
1.2388028158
1.2475456378
1.2560984755
1.2643995082
1.2723629485
1.2798863728
1.2868680530
1.2932205128
1.2988794900
1.3038114201
1.3080120915
1.3115000928
1.3143109975
1.3164886049
1.3180760469
1.3191111230
1.3196216969
1.3166459722
1.1759570663
1.1745062503
1.1742092443
1.1736301379
1.1727983498
1.1717527713
1.1705369475
1.1691949729
1.1677637154
1.1662664880
1.1647084540
1.1630678582
1.1612880839
1.1592701089
1.1568563025
1.1538099934
1.1497882539
1.1442918236
1.1365967945
1.1256777187
1.1101892659
1.0892788132
1.0587252182
1.0594590032
1.0715974923
1.0828197849
1.0945299246
1.1069329839
1.1198934912
1.1326677654
1.1443771438
1.1546059673
1.1635788462
1.1718710759
1.1800222193
1.1883462767
1.1969265362
1.2057050054
1.2145807178
1.2234621976
1.2322802133
1.2409846848
1.2495279900
1.2578486850
1.2658702374
1.2735037175
1.2806550750
1.2872401030
1.2931935999
1.2984733919
1.3030639814
1.3069729696
1.3102239644
1.3128517684
1.3148953893
1.3163910990
1.3173697253
1.3178536071
1.3148590676
1.1754994023
1.1740445894
1.1737650117
1.1732201554
1.1724383216
1.1714568327
1.1703173381
1.1690619151
1.1677254067
1.1663292499
1.1648771573
1.1633465606
1.1616810818
1.1597838280
1.1575023416
1.1546103030
1.1507842626
1.1455601885
1.1382774183
1.1280236973
1.1136464151
1.0945111460
1.0682665497
1.0644225960
1.0723105924
1.0825856754
1.0945205971
1.1076719293
1.1215033871
1.1350181212
1.1471894609
1.1575680707
1.1664416563
1.1744925233
1.1823607751
1.1904295764
1.1988228693
1.2074936481
1.2163320229
1.2252229658
1.2340635275
1.2427649975