<VTKFile type="UnstructuredGrid" version="0.1">
	<UnstructuredGrid>
		<Piece NumberOfPoints="13548" NumberOfCells="3387">
			<CellData>
				<DataArray type="Int32" Name="ghost" NumberOfComponents="1" Format="ascii">
1
1
1
1
1
1
1
1
1
1
1
1
1
1
1
1
1
1
1
1
1
1
1
1
1
1
1
1
1
1
1
1
1
1
1
1
1
1
1
1
1
1
1
1
1
1
1
1
1
1
1
1
1
1
1
1
1
1
0
0
0
0
0
0
0
0
0
0
0
0
0
0
0
0
0
0
0
0
1
1
0
0
0
0
0
0
0
0
0
0
0
0
0
0
0
0
0
0
0
0
0
0
0
0
0
0
0
0
0
0
0
0
0
1
1
0
0
0
0
0
0
0
0
0
0
0
0
0
0
0
0
0
0
0
0
1
1
0
0
0
0
0
0
0
0
0
0
0
0
0
0
0
0
0
0
0
0
0
0
0
0
0
0
0
0
0
0
0
0
0
1
1
0
0
0
0
0
0
0
0
0
0
0
0
0
0
0
0
0
0
0
0
1
1
0
0
0
0
0
0
0
0
0
0
0
0
0
0
0
0
0
0
0
0
0
0
0
0
0
0
0
0
0
0
0
0
0
1
1
0
0
0
0
0
0
0
0
0
0
0
0
0
0
0
0
0
0
0
0
1
1
0
0
0
0
0
0
0
0
0
0
0
0
0
0
0
0
0
0
0
0
0
0
0
0
0
0
0
0
0
0
0
0
0
1
1
0
0
0
0
0
0
0
0
0
0
0
0
0
0
0
0
0
0
0
0
1
1
0
0
0
0
0
0
0
0
0
0
0
0
0
0
0
0
0
0
0
0
0
0
0
0
0
0
0
0
0
0
0
0
0
1
1
0
0
0
0
0
0
0
0
0
0
0
0
0
0
0
0
0
0
0
0
1
1
0
0
0
0
0
0
0
0
0
0
0
0
0
0
0
0
0
0
0
0
0
0
0
0
0
0
0
0
0
0
0
0
0
1
1
0
0
0
0
0
0
0
0
0
0
0
0
0
0
0
0
0
0
0
0
1
1
0
0
0
0
0
0
0
0
0
0
0
0
0
0
0
0
0
0
0
0
0
0
0
0
0
0
0
0
0
0
0
0
0
1
1
0
0
0
0
0
0
0
0
0
0
0
0
0
0
0
0
0
0
0
0
1
1
0
0
0
0
0
0
0
0
0
0
0
0
0
0
0
0
0
0
0
0
0
0
0
0
0
0
0
0
0
0
0
0
0
1
1
0
0
0
0
0
0
0
0
0
0
0
0
0
0
0
0
0
0
0
0
1
1
0
0
0
0
0
0
0
0
0
0
0
0
0
0
0
0
0
0
0
0
0
0
0
0
0
0
0
0
0
0
0
0
0
1
1
0
0
0
0
0
0
0
0
0
0
0
0
0
0
0
0
0
0
0
0
1
1
0
0
0
0
0
0
0
0
0
0
0
0
0
0
0
0
0
0
0
0
0
0
0
0
0
0
0
0
0
0
0
0
0
1
1
0
0
0
0
0
0
0
0
0
0
0
0
0
0
0
0
0
0
0
0
1
1
0
0
0
0
0
0
0
0
0
0
0
0
0
0
0
0
0
0
0
0
0
0
0
0
0
0
0
0
0
0
0
0
0
1
1
0
0
0
0
0
0
0
0
0
0
0
0
0
0
0
0
0
0
0
0
1
1
0
0
0
0
0
0
0
0
0
0
0
0
0
0
0
0
0
0
0
0
0
0
0
0
0
0
0
0
0
0
0
0
0
1
1
0
0
0
0
0
0
0
0
0
0
0
0
0
0
0
0
0
0
0
0
1
1
0
0
0
0
0
0
0
0
0
0
0
0
0
0
0
0
0
0
0
0
0
0
0
0
0
0
0
0
0
0
0
0
0
1
1
0
0
0
0
0
0
0
0
0
0
0
0
0
0
0
0
0
0
0
0
1
1
0
0
0
0
0
0
0
0
0
0
0
0
0
0
0
0
0
0
0
0
0
0
0
0
0
0
0
0
0
0
0
0
0
1
1
0
0
0
0
0
0
0
0
0
0
0
0
0
0
0
0
0
0
0
0
1
1
0
0
0
0
0
0
0
0
0
0
0
0
0
0
0
0
0
0
0
0
0
0
0
0
0
0
0
0
0
0
0
0
0
1
1
0
0
0
0
0
0
0
0
0
0
0
0
0
0
0
0
0
0
0
0
1
1
0
0
0
0
0
0
0
0
0
0
0
0
0
0
0
0
0
0
0
0
0
0
0
0
0
0
0
0
0
0
0
0
0
1
1
0
0
0
0
0
0
0
0
0
0
0
0
0
0
0
0
0
0
0
0
1
1
0
0
0
0
0
0
0
0
0
0
0
0
0
0
0
0
0
0
0
0
0
0
0
0
0
0
0
0
0
0
0
0
0
1
1
0
0
0
0
0
0
0
0
0
0
0
0
0
0
0
0
0
0
0
0
1
1
0
0
0
0
0
0
0
0
0
0
0
0
0
0
0
0
0
0
0
0
0
0
0
0
0
0
0
0
0
0
0
0
0
1
1
0
0
0
0
0
0
0
0
0
0
0
0
0
0
0
0
0
0
0
0
1
1
0
0
0
0
0
0
0
0
0
0
0
0
0
0
0
0
0
0
0
0
0
0
0
0
0
0
0
0
0
0
0
0
0
1
1
0
0
0
0
0
0
0
0
0
0
0
0
0
0
0
0
0
0
0
0
1
1
0
0
0
0
0
0
0
0
0
0
0
0
0
0
0
0
0
0
0
0
0
0
0
0
0
0
0
0
0
0
0
0
0
1
1
0
0
0
0
0
0
0
0
0
0
0
0
0
0
0
0
0
0
0
0
1
1
0
0
0
0
0
0
0
0
0
0
0
0
0
0
0
0
0
0
0
0
0
0
0
0
0
0
0
0
0
0
0
0
0
1
1
0
0
0
0
0
0
0
0
0
0
0
0
0
0
0
0
0
0
0
0
1
1
0
0
0
0
0
0
0
0
0
0
0
0
0
0
0
0
0
0
0
0
0
0
0
0
0
0
0
0
0
0
0
0
0
1
1
0
0
0
0
0
0
0
0
0
0
0
0
0
0
0
0
0
0
0
0
1
1
0
0
0
0
0
0
0
0
0
0
0
0
0
0
0
0
0
0
0
0
0
0
0
0
0
0
0
0
0
0
0
0
0
1
1
0
0
0
0
0
0
0
0
0
0
0
0
0
0
0
0
0
0
0
0
1
1
0
0
0
0
0
0
0
0
0
0
0
0
0
0
0
0
0
0
0
0
0
0
0
0
0
0
0
0
0
0
0
0
0
1
1
0
0
0
0
0
0
0
0
0
0
0
0
0
0
0
0
0
0
0
0
0
1
1
0
0
0
0
0
0
0
0
0
0
0
0
0
0
0
0
0
0
0
0
0
0
0
0
0
0
0
0
0
0
0
0
0
0
1
1
0
0
0
0
0
0
0
0
0
0
0
0
0
0
0
0
0
0
0
0
0
0
0
0
0
0
0
0
0
0
0
0
0
0
0
0
0
0
0
0
0
0
0
0
0
0
0
0
0
0
0
0
0
0
0
0
0
1
1
0
0
0
0
0
0
0
0
0
0
0
0
0
0
0
0
0
0
0
0
0
0
0
0
0
0
0
0
0
0
0
0
0
0
0
0
0
0
0
0
0
0
0
0
0
0
0
0
0
0
0
0
0
0
0
0
0
1
1
0
0
0
0
0
0
0
0
0
0
0
0
0
0
0
0
0
0
0
0
0
0
0
0
0
0
0
0
0
0
0
0
0
0
0
0
0
0
0
0
0
0
0
0
0
0
0
0
0
0
0
0
0
0
0
0
0
1
1
0
0
0
0
0
0
0
0
0
0
0
0
0
0
0
0
0
0
0
0
0
0
0
0
0
0
0
0
0
0
0
0
0
0
0
0
0
0
0
0
0
0
0
0
0
0
0
0
0
0
0
0
0
0
0
0
0
1
1
0
0
0
0
0
0
0
0
0
0
0
0
0
0
0
0
0
0
0
0
0
0
0
0
0
0
0
0
0
0
0
0
0
0
0
0
0
0
0
0
0
0
0
0
0
0
0
0
0
0
0
0
0
0
0
0
0
1
1
0
0
0
0
0
0
0
0
0
0
0
0
0
0
0
0
0
0
0
0
0
0
0
0
0
0
0
0
0
0
0
0
0
0
0
0
0
0
0
0
0
0
0
0
0
0
0
0
0
0
0
0
0
0
0
0
0
1
1
0
0
0
0
0
0
0
0
0
0
0
0
0
0
0
0
0
0
0
0
0
0
0
0
0
0
0
0
0
0
0
0
0
0
0
0
0
0
0
0
0
0
0
0
0
0
0
0
0
0
0
0
0
0
0
0
0
1
1
0
0
0
0
0
0
0
0
0
0
0
0
0
0
0
0
0
0
0
0
0
0
0
0
0
0
0
0
0
0
0
0
0
0
0
0
0
0
0
0
0
0
0
0
0
0
0
0
0
0
0
0
0
0
0
0
0
1
1
0
0
0
0
0
0
0
0
0
0
0
0
0
0
0
0
0
0
0
0
0
0
0
0
0
0
0
0
0
0
0
0
0
0
0
0
0
0
0
0
0
0
0
0
0
0
0
0
0
0
0
0
0
0
0
0
0
1
1
0
0
0
0
0
0
0
0
0
0
0
0
0
0
0
0
0
0
0
0
0
0
0
0
0
0
0
0
0
0
0
0
0
0
0
0
0
0
0
0
0
0
0
0
0
0
0
0
0
0
0
0
0
0
0
0
0
1
1
0
0
0
0
0
0
0
0
0
0
0
0
0
0
0
0
0
0
0
0
0
1
1
0
0
0
0
0
0
0
0
0
0
0
0
0
0
0
0
0
0
0
0
0
0
0
0
0
0
0
0
0
0
0
0
0
0
1
1
0
0
0
0
0
0
0
0
0
0
0
0
0
0
0
0
0
0
0
0
1
1
0
0
0
0
0
0
0
0
0
0
0
0
0
0
0
0
0
0
0
0
0
0
0
0
0
0
0
0
0
0
0
0
0
1
1
0
0
0
0
0
0
0
0
0
0
0
0
0
0
0
0
0
0
0
0
1
1
0
0
0
0
0
0
0
0
0
0
0
0
0
0
0
0
0
0
0
0
0
0
0
0
0
0
0
0
0
0
0
0
0
1
1
0
0
0
0
0
0
0
0
0
0
0
0
0
0
0
0
0
0
0
0
1
1
0
0
0
0
0
0
0
0
0
0
0
0
0
0
0
0
0
0
0
0
0
0
0
0
0
0
0
0
0
0
0
0
0
1
1
0
0
0
0
0
0
0
0
0
0
0
0
0
0
0
0
0
0
0
0
1
1
0
0
0
0
0
0
0
0
0
0
0
0
0
0
0
0
0
0
0
0
0
0
0
0
0
0
0
0
0
0
0
0
0
1
1
0
0
0
0
0
0
0
0
0
0
0
0
0
0
0
0
0
0
0
0
1
1
0
0
0
0
0
0
0
0
0
0
0
0
0
0
0
0
0
0
0
0
0
0
0
0
0
0
0
0
0
0
0
0
0
1
1
0
0
0
0
0
0
0
0
0
0
0
0
0
0
0
0
0
0
0
0
1
1
0
0
0
0
0
0
0
0
0
0
0
0
0
0
0
0
0
0
0
0
0
0
0
0
0
0
0
0
0
0
0
0
0
1
1
0
0
0
0
0
0
0
0
0
0
0
0
0
0
0
0
0
0
0
0
1
1
0
0
0
0
0
0
0
0
0
0
0
0
0
0
0
0
0
0
0
0
0
0
0
0
0
0
0
0
0
0
0
0
0
1
1
0
0
0
0
0
0
0
0
0
0
0
0
0
0
0
0
0
0
0
0
1
1
0
0
0
0
0
0
0
0
0
0
0
0
0
0
0
0
0
0
0
0
0
0
0
0
0
0
0
0
0
0
0
0
0
1
1
0
0
0
0
0
0
0
0
0
0
0
0
0
0
0
0
0
0
0
0
1
1
0
0
0
0
0
0
0
0
0
0
0
0
0
0
0
0
0
0
0
0
0
0
0
0
0
0
0
0
0
0
0
0
0
1
1
0
0
0
0
0
0
0
0
0
0
0
0
0
0
0
0
0
0
0
0
1
1
0
0
0
0
0
0
0
0
0
0
0
0
0
0
0
0
0
0
0
0
0
0
0
0
0
0
0
0
0
0
0
0
0
1
1
0
0
0
0
0
0
0
0
0
0
0
0
0
0
0
0
0
0
0
0
1
1
0
0
0
0
0
0
0
0
0
0
0
0
0
0
0
0
0
0
0
0
0
0
0
0
0
0
0
0
0
0
0
0
0
1
1
0
0
0
0
0
0
0
0
0
0
0
0
0
0
0
0
0
0
0
0
1
1
0
0
0
0
0
0
0
0
0
0
0
0
0
0
0
0
0
0
0
0
0
0
0
0
0
0
0
0
0
0
0
0
0
1
1
0
0
0
0
0
0
0
0
0
0
0
0
0
0
0
0
0
0
0
0
1
1
0
0
0
0
0
0
0
0
0
0
0
0
0
0
0
0
0
0
0
0
0
0
0
0
0
0
0
0
0
0
0
0
0
1
1
0
0
0
0
0
0
0
0
0
0
0
0
0
0
0
0
0
0
0
0
1
1
0
0
0
0
0
0
0
0
0
0
0
0
0
0
0
0
0
0
0
0
0
0
0
0
0
0
0
0
0
0
0
0
0
1
1
0
0
0
0
0
0
0
0
0
0
0
0
0
0
0
0
0
0
0
0
1
1
0
0
0
0
0
0
0
0
0
0
0
0
0
0
0
0
0
0
0
0
0
0
0
0
0
0
0
0
0
0
0
0
0
1
1
0
0
0
0
0
0
0
0
0
0
0
0
0
0
0
0
0
0
0
0
1
1
0
0
0
0
0
0
0
0
0
0
0
0
0
0
0
0
0
0
0
0
0
0
0
0
0
0
0
0
0
0
0
0
0
1
1
0
0
0
0
0
0
0
0
0
0
0
0
0
0
0
0
0
0
0
0
1
1
0
0
0
0
0
0
0
0
0
0
0
0
0
0
0
0
0
0
0
0
0
0
0
0
0
0
0
0
0
0
0
0
0
1
1
0
0
0
0
0
0
0
0
0
0
0
0
0
0
0
0
0
0
0
0
1
1
0
0
0
0
0
0
0
0
0
0
0
0
0
0
0
0
0
0
0
0
0
0
0
0
0
0
0
0
0
0
0
0
0
1
1
0
0
0
0
0
0
0
0
0
0
0
0
0
0
0
0
0
0
0
0
1
1
0
0
0
0
0
0
0
0
0
0
0
0
0
0
0
0
0
0
0
0
0
0
0
0
0
0
0
0
0
0
0
0
0
1
1
0
0
0
0
0
0
0
0
0
0
0
0
0
0
0
0
0
0
0
0
1
1
0
0
0
0
0
0
0
0
0
0
0
0
0
0
0
0
0
0
0
0
0
0
0
0
0
0
0
0
0
0
0
0
0
1
1
0
0
0
0
0
0
0
0
0
0
0
0
0
0
0
0
0
0
0
0
1
1
0
0
0
0
0
0
0
0
0
0
0
0
0
0
0
0
0
0
0
0
0
0
0
0
0
0
0
0
0
0
0
0
0
1
1
1
1
1
1
1
1
1
1
1
1
1
1
1
1
1
1
1
1
1
1
1
1
1
1
1
1
1
1
1
1
1
1
1
1
1
1
1
1
1
1
1
1
1
1
1
1
1
1
1
1
1
1
1
1
1
1
				</DataArray>
				<DataArray type="Float64" Name="h" NumberOfComponents="1" Format="ascii">
1.3004625131
1.2987084129
1.2978363777
1.2961211603
1.2936184550
1.2904064851
1.2865811249
1.2822507143
1.2775307653
1.2725403532
1.2673992636
1.2622256510
1.2571354676
1.2522417578
1.2476538286
1.2434770978
1.2398114697
1.2367491101
1.2343718167
1.2327465217
1.2319212075
1.2319212075
1.1296070610
1.1286489583
1.1288961250
1.1293728083
1.1300486136
1.1308868254
1.1318511045
1.1329116547
1.1340491310
1.1352585409
1.1365544974
1.1379763642
1.1395952854
1.1415228822
1.1439181922
1.1469918096
1.1510026194
1.1562393787
1.1629811479
1.1714325525
1.1816401563
1.1934122086
1.2062813280
1.2195494095
1.2324164464
1.2441524915
1.2542436774
1.2624539766
1.2688008232
1.2734774184
1.2767603113
1.2789337163
1.2802393865
1.2808483477
1.2808483477
1.2987084129
1.2967821939
1.2958919665
1.2941438457
1.2916000719
1.2883475881
1.2844921042
1.2801518022
1.2754509482
1.2705154121
1.2654691432
1.2604313402
1.2555155858
1.2508290069
1.2464715310
1.2425360695
1.2391075641
1.2362618844
1.2340646635
1.2325684994
1.2318106312
1.2319212075
1.1286489583
1.1276625187
1.1279147637
1.1284019515
1.1290943738
1.1299564070
1.1309533693
1.1320579770
1.1332546974
1.1345441978
1.1359492161
1.1375203158
1.1393432972
1.1415477325
1.1443127212
1.1478680325
1.1524852240
1.1584506462
1.1660150194
1.1753191558
1.1863092003
1.1986711370
1.2118263468
1.2250166439
1.2374586572
1.2485104994
1.2577844159
1.2651673838
1.2707679787
1.2748294660
1.2776436070
1.2794877823
1.2805875637
1.2810982165
1.2808483477
1.2985226042
1.2966091956
1.2957273631
1.2939956230
1.2914754868
1.2882529947
1.2844329434
1.2801327332
1.2754760614
1.2705884464
1.2655936337
1.2606106368
1.2557526899
1.2511262138
1.2468299058
1.2429548110
1.2395833851
1.2367885633
1.2346329088
1.2331662306
1.2324236665
1.2325574348
1.1282707361
1.1272765846
1.1275352557
1.1280346633
1.1287441586
1.1296273010
1.1306490242
1.1317822515
1.1330123113
1.1343413801
1.1357942952
1.1374241310
1.1393191924
1.1416107420
1.1444773849
1.1481442037
1.1528715075
1.1589260684
1.1665313561
1.1757986629
1.1866533578
1.1987827362
1.2116393085
1.2245199634
1.2367011898
1.2475838381
1.2567936961
1.2642043978
1.2698956121
1.2740783070
1.2770165389
1.2789676020
1.2801443421
1.2806949911
1.2803499626
1.2981559559
1.2962676806
1.2954024843
1.2937032323
1.2912300366
1.2880671964
1.2843177380
1.2800975276
1.2755291175
1.2707372736
1.2658452461
1.2609715607
1.2562286246
1.2517213298
1.2475458395
1.2437894720
1.2405298207
1.2378341751
1.2357592749
1.2343497084
1.2336367277
1.2338163765
1.1275144934
1.1265060779
1.1267776200
1.1273014766
1.1280450852
1.1289703515
1.1300414308
1.1312316516
1.1325280408
1.1339357430
1.1354837028
1.1372298596
1.1392672805
1.1417302540
1.1447959667
1.1486797767
1.1536195938
1.1598441851
1.1675253239
1.1767196155
1.1873151089
1.1990026734
1.2112921867
1.2235809536
1.2352555542
1.2457980292
1.2548637306
1.2623061338
1.2681537791
1.2725574829
1.2757277213
1.2778816197
1.2792057529
1.2798333981
1.2792941730
1.2976189337
1.2957670525
1.2949264326
1.2932752365
1.2908716136
1.2877974076
1.2841531185
1.2800523789
1.2756160015
1.2709675035
1.2662291809
1.2615185480
1.2569464672
1.2526152686
1.2486171559
1.2450338863
1.2419360362
1.2393829661
1.2374234351
1.2360950453
1.2354239702
1.2356713124
1.1263804795
1.1253534596
1.1256443480
1.1262048868
1.1269995653
1.1279877652
1.1291324578
1.1304075562
1.1318025737
1.1333269777
1.1350156379
1.1369334011
1.1391798716
1.1418930275
1.1452469305
1.1494415991
1.1546817196
1.1611419305
1.1689230847
1.1780096828
1.1882431575
1.1993216996
1.2108304436
1.2222958816
1.2332479503
1.2432796616
1.2520947422
1.2595303019
1.2655535836
1.2702362594
1.2737136905
1.2761435489
1.2776715507
1.2784066695
1.2775682486
1.2969273309
1.2951212915
1.2943127393
1.2927243534
1.2904119027
1.2874542239
1.2839486713
1.2800060100
1.2757446901
1.2712863488
1.2667516390
1.2622562460
1.2579084587
1.2538067528
1.2500378166
1.2466760871
1.2437833004
1.2414092021
1.2395932201
1.2383650973
1.2377455254
1.2380812583
1.1248688477
1.1238219038
1.1241386877
1.1247481985
1.1256108482
1.1266825753
1.1279247421
1.1293119938
1.1308370335
1.1325148356
1.1343877218
1.1365290252
1.1390459789
1.1420800054
1.1457993531
1.1503825051
1.1559908635
1.1627322043
1.1706241371
1.1795711413
1.1893670340
1.1997224363
1.2103060332
1.2207834210
1.2308408077
1.2401994070
1.2486302102
1.2559683551
1.2621243216
1.2670843410
1.2708948640
1.2736377676
1.2754032175
1.2762653149
1.2750183021
1.2961025521
1.2943490275
1.2935794364
1.2920675156
1.2898663987
1.2870515479
1.2837167026
1.2799691974
1.2759244547
1.2717014403
1.2674182117
1.2631874796
1.2591136016
1.2552896553
1.2517951691
1.2486956493
1.2460426037
1.2438751880
1.2422230772
1.2411082922
1.2405465376
1.2409901687
1.1229792004
1.1219145836
1.1222639488
1.1229348616
1.1238823977
1.1250580737
1.1264211951
1.1279472376
1.1296326678
1.1314989058
1.1335968538
1.1360093110
1.1388513934
1.1422666890
1.1464139557
1.1514436163
1.1574651132
1.1645109130
1.1725106739
1.1812903601
1.1906025574
1.2001761016
1.2097627959
1.2191605418
1.2282054302
1.2367493771
1.2446448731
1.2517458092
1.2579238975
1.2630883210
1.2671941984
1.2702377386
1.2722412495
1.2732335435
1.2714710638
1.2951718969
1.2934736320
1.2927491502
1.2913259537
1.2892544476
1.2866065338
1.2834720142
1.2799542940
1.2761650549
1.2722196337
1.2682322794
1.2643112730
1.2605553950
1.2570505958
1.2538675955
1.2510616010
1.2486730111
1.2467301750
1.2452535336
1.2442585381
1.2437573183
1.2443272183
1.1207095400
1.1196334026
1.1200222250
1.1207671678
1.1218165537
1.1231164445
1.1246236309
1.1263144522
1.1281895341
1.1302773531
1.1326380154
1.1353640556
1.1385778055
1.1424227110
1.1470435694
1.1525563613
1.1590119710
1.1663639224
1.1744565050
1.1830464587
1.1918566175
1.2006395328
1.2092232032
1.2175193484
1.2254929077
1.2331148944
1.2403244658
1.2470144911
1.2530441325
1.2582673330
1.2625591731
1.2658308216
1.2680306842
1.2691347545
1.2667656051
1.2941677530
1.2925222842
1.2918481580
1.2905242235
1.2885982063
1.2861384207
1.2832305363
1.2799735845
1.2764747503
1.2728446415
1.2691922707
1.2656197977
1.2622185893
1.2590656697
1.2562214136
1.2537296864
1.2516194390
1.2499087176
1.2486100998
1.2477345414
1.2472928808
1.2480062938
1.1180544360
1.1169769686
1.1174124013
1.1182443010
1.1194126314
1.1208569308
1.1225310225
1.1244120635
1.1265049967
1.1288455522
1.1315030664
1.1345792979
1.1382022080
1.1425119138
1.1476343602
1.1536454427
1.1605335554
1.1681744781
1.1763357670
1.1847194197
1.1930322985
1.2010550082
1.2086810001
1.2159115094
1.2228111249
1.2294477459
1.2358414681
1.2419374097
1.2476090007
1.2526851645
1.2569852638
1.2603493564
1.2626563690
1.2638285355
1.2607960173
1.2931266256
1.2915250172
1.2909054226
1.2896892088
1.2879215781
1.2856673506
1.2830079687
1.2800376946
1.2768584392
1.2735748956
1.2702892883
1.2670958500
1.2640766507
1.2612980660
1.2588088194
1.2566407819
1.2548116347
1.2533302262
1.2522033166
1.2514401960
1.2510534956
1.2519263888
1.1150024782
1.1139379601
1.1144275248
1.1153596877
1.1166642299
1.1182731055
1.1201367649
1.1222330451
1.1245710679
1.1271935154
1.1301783104
1.1336351244
1.1376951362
1.1424913378
1.1481259897
1.1546305873
1.1619301012
1.1698280710
1.1780281747
1.1861945135
1.1940315506
1.2013505837
1.2080983495
1.2143405536
1.2202104066
1.2258451394
1.2313307642
1.2366675871
1.2417636336
1.2464540196
1.2505352316
1.2538030129
1.2560842336
1.2572563392
1.2535594673
1.2920873759
1.2905131753
1.2899510512
1.2888485801
1.2872486602
1.2852127887
1.2828181576
1.2801539150
1.2773159424
1.2744018338
1.2715054792
1.2687114217
1.2660906737
1.2636974663
1.2615678977
1.2597215962
1.2581655744
1.2569009952
1.2559312673
1.2552673941
1.2549276235
1.2559742807
1.1115327305
1.1104995758
1.1110512089
1.1120972670
1.1135553102
1.1153487628
1.1174244287
1.1197606043
1.1223701003
1.1253016751
1.1286404760
1.1325020114
1.1370176100
1.1423090853
1.1484507408
1.1554271305
1.1631018356
1.1712149788
1.1794213798
1.1873639721
1.1947564311
1.2014415863
1.2074076496
1.2127624772
1.2176798701
1.2223388787
1.2268712998
1.2313259812
1.2356555930
1.2397266140
1.2433467989
1.2463025762
1.2483978508
1.2494849888
1.2451954752
1.2910881687
1.2895168047
1.2890136982
1.2880282177
1.2866012003
1.2847910272
1.2826706664
1.2803238727
1.2778398271
1.2753079514
1.2728124095
1.2704265071
1.2682087262
1.2662000135
1.2644232567
1.2628859564
1.2615853276
1.2605165109
1.2596821559
1.2590986955
1.2587945718
1.2600268600
1.1076096859
1.1066304639
1.1072526011
1.1084264436
1.1100551014
1.1120528138
1.1143627255
1.1169633092
1.1198701657
1.1231366102
1.1268529132
1.1311376585
1.1361188300
1.1419031279
1.1485336092
1.1559473259
1.1639510729
1.1722324340
1.1804126604
1.1881283601
1.1951112222
1.2012349407
1.2065189029
1.2110953472
1.2151564354
1.2188996928
1.2224823601
1.2259894331
1.2294184624
1.2326824395
1.2356285820
1.2380693726
1.2398204835
1.2407362372
1.2360032479
1.2901631423
1.2885620022
1.2881179426
1.2872496548
1.2859961468
1.2844128955
1.2825687122
1.2805417716
1.2784140387
1.2762659188
1.2741707620
1.2721894632
1.2703669283
1.2687301221
1.2672885310
1.2660379101
1.2649666170
1.2640652933
1.2633382333
1.2628111633
1.2625281814
1.2639545540
1.1031778833
1.1022792777
1.1029809656
1.1042965722
1.1061124242
1.1083335103
1.1108997671
1.1137895383
1.1170198504
1.1206463409
1.1247615494
1.1294837883
1.1349340100
1.1412003143
1.1482924755
1.1561013959
1.1643835775
1.1727857063
1.1809095683
1.1883974664
1.1950050427
1.2006352492
1.2053305079
1.2092347925
1.2125431923
1.2154547877
1.2181356162
1.2206934058
1.2231644880
1.2255133980
1.2276443649
1.2294234733
1.2307094443
1.2313855453
1.2264221311
1.2893387723
1.2876681245
1.2872815658
1.2865274988
1.2854433033
1.2840817538
1.2825076154
1.2807934217
1.2790136330
1.2772391259
1.2755317792
1.2739393984
1.2724927849
1.2712046961
1.2700713701
1.2690773275
1.2682028463
1.2674351435
1.2667820374
1.2662823830
1.2660025707
1.2676269597
1.0981563412
1.0973689486
1.0981599658
1.0996309984
1.1016493842
1.1041119019
1.1069565207
1.1101612059
1.1137425155
1.1177553705
1.1222909416
1.1274634115
1.1333830049
1.1401163933
1.1476393433
1.1557995501
1.1643107814
1.1727901129
1.1808318932
1.1880931348
1.1943570161
1.1995538886
1.2037435302
1.2070739153
1.2097341493
1.2119148613
1.2137799311
1.2154489682
1.2169887387
1.2184127321
1.2196879203
1.2207481946
1.2215147306
1.2219183417
1.2169699033
1.2886304170
1.2868452551
1.2865131022
1.2858671573
1.2849433378
1.2837919071
1.2824737500
1.2810558551
1.2796051692
1.2781829338
1.2768394046
1.2756091813
1.2745089762
1.2735375588
1.2726783222
1.2719050296
1.2711902670
1.2705181472
1.2699010169
1.2693944932
1.2690955818
1.2709163958
1.0924324612
1.0917902034
1.0926815014
1.0943209875
1.0965553540
1.0992760984
1.1024216860
1.1059695846
1.1099333499
1.1143631920
1.1193443938
1.1249826424
1.1313738104
1.1385610253
1.1464864856
1.1549587152
1.1636565659
1.1721776526
1.1801185398
1.1871573464
1.1931068337
1.1979233160
1.2016807778
1.2045277377
1.2066438976
1.2082075000
1.2093750438
1.2102711494
1.2109851157
1.2115721239
1.2120573370
1.2124420504
1.2127133627
1.2128547484
1.2081581606
1.2880401789
1.2860929286
1.2858106550
1.2852638475
1.2844870980
1.2835283515
1.2824448484
1.2812983062
1.2801484556
1.2790472286
1.2780336360
1.2771295164
1.2763380227
1.2756445258
1.2750201094
1.2744280666
1.2738330812
1.2732154325
1.2725917201
1.2720374983
1.2716911585
1.2737005896
1.0858592837
1.0853982262
1.0864029982
1.0882232250
1.0906846381
1.0936794439
1.0971508324
1.1010758118
1.1054615371
1.1103482794
1.1158098172
1.1219383563
1.1288118231
1.1364483003
1.1447577291
1.1535140458
1.1623686248
1.1709082550
1.1787391826
1.1855651447
1.1912298732
1.1957151536
1.1991083951
1.2015585944
1.2032366778
1.2043089633
1.2049236439
1.2052068413
1.2052635994
1.2051808972
1.2050301320
1.2048677254
1.2047359657
1.2046632107
1.2004096425
1.2875564412
1.2854002849
1.2851621501
1.2847030525
1.2840563830
1.2832679772
1.2823917506
1.2814846050
1.2805996506
1.2797802481
1.2790550328
1.2784340329
1.2779078038
1.2774491733
1.2770174640
1.2765654614
1.2760489710
1.2754423617
1.2747643855
1.2741127298
1.2736813600
1.2758651553
1.0782580411
1.0780145078
1.0791504858
1.0811633358
1.0838604061
1.0871453875
1.0909727781
1.0953191621
1.1001805659
1.1055803611
1.1115737348
1.1182335984
1.1256162547
1.1337136931
1.1424054505
1.1514355406
1.1604345259
1.1689854720
1.1767100829
1.1833411608
1.1887548708
1.1929591778
1.1960560915
1.1981973346
1.1995480884
1.2002655629
1.2004908762
1.2003497605
1.1999566923
1.1994190912
1.1988385758
1.1983077602
1.1979052070
1.1976887710
1.1940012719
1.2871552705
1.2847477307
1.2845470628
1.2841623805
1.2836260015
1.2829818933
1.2822810496
1.2815761769
1.2809146187
1.2803322499
1.2798486058
1.2794632560
1.2791554381
1.2788864438
1.2786042886
1.2782507946
1.2777710254
1.2771297145
1.2763430742
1.2755310829
1.2749619641
1.2772997655
1.0694263739
1.0694343308
1.0707289888
1.0729480384
1.0758888944
1.0794845693
1.0837100759
1.0885408851
1.0939548572
1.0999489541
1.1065507459
1.1138070811
1.1217489199
1.1303415547
1.1394363475
1.1487518815
1.1579036809
1.1664768996
1.1741133857
1.1805780833
1.1857815641
1.1897598082
1.1926319059
1.1945556825
1.1956943826
1.1961993386
1.1962059493
1.1958375876
1.1952116107
1.1944440980
1.1936502081
1.1929388635
1.1924048437
1.1921190423
1.1890485350
1.2868036697
1.2841100393
1.2839395454
1.2836147469
1.2831670321
1.2826387783
1.2820785376
1.2815355704
1.2810525015
1.2806590587
1.2803672403
1.2801677830
1.2800300774
1.2799049263
1.2797293161
1.2794331771
1.2789480065
1.2782232063
1.2772640338
1.2762087242
1.2754235718
1.2778897486
1.0591571041
1.0594451739
1.0609463058
1.0633919126
1.0665899799
1.0705304470
1.0752198610
1.0806292004
1.0867069901
1.0934106438
1.1007289308
1.1086753104
1.1172522434
1.1263986231
1.1359404291
1.1455751525
1.1549082474
1.1635317891
1.1711118390
1.1774485808
1.1824895344
1.1863012685
1.1890229306
1.1908218316
1.1918625465
1.1922927958
1.1922425018
1.1918298361
1.1911683099
1.1903718246
1.1895546800
1.1888256789
1.1882797632
1.1879879795
1.1855239912
1.2864641786
1.2834603447
1.2833124155
1.2830323453
1.2826507580
1.2822087548
1.2817529817
1.2813300884
1.2809791469
1.2807252265
1.2805745160
1.2805106874
1.2804948265
1.2804682402
1.2803569255
1.2800774935
1.2795440500
1.2786826557
1.2774738178
1.2760615535
1.2749376394
1.2775024742
1.0472608516
1.0478498655
1.0496459480
1.0523554046
1.0558426144
1.0601938786
1.0654564173
1.0715863601
1.0784848287
1.0860522280
1.0942261343
1.1029804731
1.1122883213
1.1220645681
1.1321137701
1.1421167308
1.1516731083
1.1603859179
1.1679490531
1.1742010535
1.1791292046
1.1828333913
1.1854755195
1.1872349522
1.1882795833
1.1887542981
1.1887824879
1.1884736891
1.1879314993
1.1872591480
1.1865598310
1.1859313794
1.1854588951
1.1852058864
1.1832949377
1.2860996188
1.2827739628
1.2826409108
1.2823902657
1.2820520679
1.2816664787
1.2812788010
1.2809339452
1.2806686441
1.2805048524
1.2804447398
1.2804667229
1.2805251058
1.2805525663
1.2804638563
1.2801602921
1.2795337020
1.2784761135
1.2769218427
1.2749918390
1.2733260892
1.2759571508
1.0335679142
1.0344702785
1.0367308450
1.0397813249
1.0436401974
1.0485379443
1.0545593457
1.0616208929
1.0695490059
1.0781671825
1.0873522033
1.0970376944
1.1071719818
1.1176523908
1.1282680431
1.1386877153
1.1485087666
1.1573481960
1.1649306579
1.1711358014
1.1759932279
1.1796384005
1.1822578476
1.1840443576
1.1851697622
1.1857756532
1.1859771342
1.1858719427
1.1855493124
1.1850964629
1.1845998256
1.1841409052
1.1837904969
1.1836014051
1.1821661184
1.2856774533
1.2820317172
1.2819059012
1.2816694687
1.2813520544
1.2809932053
1.2806374267
1.2803287413
1.2801027386
1.2799798022
1.2799598938
1.2800180197
1.2801032376
1.2801403855
1.2800324349
1.2796628075
1.2788949145
1.2775728534
1.2755526577
1.2728725710
1.2703104260
1.2729738500
1.0178475677
1.0190703892
1.0221364019
1.0257103816
1.0301562647
1.0358816305
1.0429731409
1.0512622785
1.0604689717
1.0703271055
1.0806555089
1.0913593613
1.1023766922
1.1135996777
1.1248104316
1.1356702721
1.1457763630
1.1547610739
1.1623813461
1.1685595879
1.1733692844
1.1769826977
1.1796116854
1.1814626443
1.1827109357
1.1834937967
1.1839163820
1.1840624950
1.1840046388
1.1838117671
1.1835517039
1.1832883671
1.1830775780
1.1829611988
1.1819159301
1.2851738139
1.2812229314
1.2810967355
1.2808593240
1.2805400418
1.2801780523
1.2798174785
1.2795021571
1.2792675875
1.2791340287
1.2791010680
1.2791423362
1.2792035545
1.2792030177
1.2790318003
1.2785527684
1.2775936156
1.2759326381
1.2733006176
1.2695367084
1.2654247597
1.2680861877
0.9994039088
1.0009598133
1.0056368322
1.0102664064
1.0158638496
1.0229774896
1.0316207993
1.0414956458
1.0522077770
1.0634201162
1.0749245773
1.0866303712
1.0984921693
1.1104151280
1.1221837460
1.1334546326
1.1438238904
1.1529376152
1.1605839372
1.1667275122
1.1714854580
1.1750664890
1.1777071783
1.1796267022
1.1810029596
1.1819677439
1.1826152194
1.1830144222
1.1832206696
1.1832847324
1.1832564931
1.1831834110
1.1831076675
1.1830613692
1.1823229190
1.2845771872
1.2803482568
1.2802139846
1.2799601480
1.2796157235
1.2792194076
1.2788149097
1.2784460003
1.2781484468
1.2779431055
1.2778304346
1.2777845390
1.2777503141
1.2776426754
1.2773441911
1.2766996382
1.2754993970
1.2734405599
1.2700663383
1.2647969309
1.2578822141
1.2605073278
0.9752828241
0.9772220654
0.9863377365
0.9938512844
1.0019748754
1.0114306762
1.0221985104
1.0339189742
1.0461678531
1.0586207861
1.0711135143
1.0836118752
1.0961210855
1.1085767043
1.1207704814
1.1323511833
1.1429071782
1.1520915656
1.1597183849
1.1657906871
1.1704663494
1.1739882130
1.1766155883
1.1785788110
1.1800570937
1.1811760023
1.1820184469
1.1826390138
1.1830767590
1.1833657762
1.1835399682
1.1836325065
1.1836740021
1.1836884355
1.1831819819
1.2838934605
1.2794241420
1.2792741927
1.2789885074
1.2785952460
1.2781319165
1.2776407667
1.2771640773
1.2767359767
1.2763754237
1.2760806255
1.2758223974
1.2755407579
1.2751442142
1.2745078056
1.2734697749
1.2718175803
1.2692398274
1.2651926679
1.2585749256
1.2473544618
1.2499115578
0.9318266843
0.9343350278
0.9626491649
0.9788738523
0.9919721824
1.0046500309
1.0176142373
1.0308323117
1.0440795320
1.0571851745
1.0701106930
1.0829203861
1.0956853106
1.1083699637
1.1207621516
1.1324872065
1.1431098412
1.1522765725
1.1598169055
1.1657645679
1.1703125061
1.1737334725
1.1763064637
1.1782709427
1.1798063249
1.1810316770
1.1820191525
1.1828100836
1.1834290508
1.1838956956
1.1842304045
1.1844545034
1.1845891801
1.1846518903
1.1843132107
1.2831516359
1.2784881553
1.2783161299
1.2779854804
1.2775228620
1.2769633974
1.2763459241
1.2757081298
1.2750775010
1.2744628846
1.2738464724
1.2731720230
1.2723325704
1.2711540490
1.2693631598
1.2665267714
1.2619243827
1.2542581133
1.2409681998
1.2164723274
1.1672080080
1.0550239206
0.8894472201
0.9425919708
0.9961889888
0.9889994955
0.9925734584
0.9967215761
1.0034815600
1.0126360417
1.0234782826
1.0352871728
1.0475156616
1.0598515545
1.0721998031
1.0846034240
1.0971169854
1.1096756294
1.1220204339
1.1337211680
1.1442946880
1.1533630077
1.1607580455
1.1665347443
1.1709142831
1.1741945289
1.1766710578
1.1785907658
1.1801327610
1.1814100844
1.1824853947
1.1833886516
1.1841322853
1.1847240501
1.1851734127
1.1854922606
1.1856943661
1.1857921014
1.1855672940
1.2824036958
1.2775986904
1.2774013269
1.2770191261
1.2764771103
1.2758078288
1.2750464933
1.2742260622
1.2733675827
1.2724709277
1.2715056634
1.2703968851
1.2690098970
1.2671307132
1.2644306739
1.2604076792
1.2542777910
1.2447526444
1.2295756265
1.2044807225
1.1607339481
1.0798753921
0.8879439525
0.9419524262
0.9725607252
0.9797378472
0.9890371147
0.9975512208
1.0067748927
1.0170567990
1.0281920042
1.0398101189
1.0515995496
1.0634059992
1.0752401435
1.0872167589
1.0994234381
1.1117925883
1.1240317734
1.1356607391
1.1461493686
1.1550931601
1.1623228379
1.1679104150
1.1721014143
1.1752158031
1.1775639218
1.1793994732
1.1809016913
1.1821788996
1.1832862147
1.1842446308
1.1850571040
1.1857222423
1.1862412143
1.1866187962
1.1868632209
1.1869830885
1.1868267431
1.2817123597
1.2768228652
1.2766006251
1.2761679861
1.2755487318
1.2747735088
1.2738749719
1.2728830297
1.2718149944
1.2706661889
1.2694008405
1.2679374281
1.2661332870
1.2637663869
1.2605029860
1.2558483878
1.2490633477
1.2389997127
1.2237847875
1.2001794647
1.1622424749
1.1005664328
0.9760944787
0.9804765408
0.9869864761
0.9893016541
0.9955126045
1.0033292379
1.0125248598
1.0227888240
1.0337231772
1.0449571984
1.0562457897
1.0675141921
1.0788400041
1.0903810743
1.1022612867
1.1144156955
1.1265230728
1.1380579307
1.1484463471
1.1572576150
1.1643188534
1.1697151611
1.1737121647
1.1766485330
1.1788473787
1.1805686355
1.1819923073
1.1832235962
1.1843123132
1.1852731254
1.1861023520
1.1867922782
1.1873384128
1.1877407251
1.1880037383
1.1881335475
1.1880060906
1.2811349648
1.2762206753
1.2759770006
1.2755010972
1.2748160821
1.2739516121
1.2729391056
1.2718072408
1.2705721371
1.2692281534
1.2677392414
1.2660245042
1.2639435477
1.2612802456
1.2577137877
1.2527775132
1.2457935893
1.2357475387
1.2210639596
1.1991902452
1.1658180629
1.1154441653
1.0280939803
1.0095565067
1.0023561611
1.0000080939
1.0034158556
1.0101083021
1.0188505253
1.0288164145
1.0394094607
1.0502188399
1.0610250715
1.0717995318
1.0826662003
1.0938184541
1.1053928282
1.1173355597
1.1293033788
1.1407334195
1.1510148571
1.1596939808
1.1665932719
1.1718070271
1.1756161505
1.1783738782
1.1804135165
1.1820002906
1.1833154491
1.1844626354
1.1854886282
1.1864044739
1.1872027735
1.1878723961
1.1884059113
1.1888008639
1.1890599669
1.1891881285
1.1890528083
1.2807126022
1.2758343699
1.2755745123
1.2750661234
1.2743321709
1.2734021020
1.2723071361
1.2710759727
1.2697250538
1.2682495921
1.2666153892
1.2647447381
1.2625025345
1.2596816636
1.2559765511
1.2509474146
1.2439664699
1.2341158812
1.2200164955
1.1995374941
1.1693175742
1.1256921735
1.0584413586
1.0299313503
1.0153165541
1.0095026334
1.0107898176
1.0164556203
1.0246923950
1.0343235622
1.0445975260
1.0550586230
1.0654924973
1.0758940306
1.0864143431
1.0972705005
1.1086070925
1.1203735886
1.1322153354
1.1435432222
1.1537202214
1.1622759083
1.1690288187
1.1740790259
1.1777175756
1.1803075349
1.1821892307
1.1836317781
1.1848178342
1.1858508654
1.1867768139
1.1876058139
1.1883297392
1.1889370785
1.1894203508
1.1897772490
1.1900107537
1.1901260450
1.1899458361
1.2804670363
1.2756854222
1.2754154364
1.2748868909
1.2741229883
1.2731535108
1.2720101253
1.2707221762
1.2693069768
1.2677609640
1.2660517982
1.2641045279
1.2617882297
1.2589024079
1.2551520283
1.2501146990
1.2431927458
1.2335226499
1.2198291422
1.2001939769
1.1717170976
1.1315140903
1.0736276798
1.0417101019
1.0241503049
1.0166768239
1.0168416807
1.0218473355
1.0296779469
1.0390114398
1.0490248602
1.0592365161
1.0694277763
1.0795984744
1.0899078439
1.1005808876
1.1117650692
1.1234073643
1.1351479096
1.1463839819
1.1564652107
1.1649126507