<VTKFile type="UnstructuredGrid" version="0.1">
	<UnstructuredGrid>
		<Piece NumberOfPoints="13548" NumberOfCells="3387">
			<CellData>
				<DataArray type="Int32" Name="ghost" NumberOfComponents="1" Format="ascii">
1
1
1
1
1
1
1
1
1
1
1
1
1
1
1
1
1
1
1
1
1
1
1
1
1
1
1
1
1
1
1
1
1
1
1
1
1
1
1
1
1
1
1
1
1
1
1
1
1
1
1
1
1
1
1
1
1
1
0
0
0
0
0
0
0
0
0
0
0
0
0
0
0
0
0
0
0
0
1
1
0
0
0
0
0
0
0
0
0
0
0
0
0
0
0
0
0
0
0
0
0
0
0
0
0
0
0
0
0
0
0
0
0
1
1
0
0
0
0
0
0
0
0
0
0
0
0
0
0
0
0
0
0
0
0
1
1
0
0
0
0
0
0
0
0
0
0
0
0
0
0
0
0
0
0
0
0
0
0
0
0
0
0
0
0
0
0
0
0
0
1
1
0
0
0
0
0
0
0
0
0
0
0
0
0
0
0
0
0
0
0
0
1
1
0
0
0
0
0
0
0
0
0
0
0
0
0
0
0
0
0
0
0
0
0
0
0
0
0
0
0
0
0
0
0
0
0
1
1
0
0
0
0
0
0
0
0
0
0
0
0
0
0
0
0
0
0
0
0
1
1
0
0
0
0
0
0
0
0
0
0
0
0
0
0
0
0
0
0
0
0
0
0
0
0
0
0
0
0
0
0
0
0
0
1
1
0
0
0
0
0
0
0
0
0
0
0
0
0
0
0
0
0
0
0
0
1
1
0
0
0
0
0
0
0
0
0
0
0
0
0
0
0
0
0
0
0
0
0
0
0
0
0
0
0
0
0
0
0
0
0
1
1
0
0
0
0
0
0
0
0
0
0
0
0
0
0
0
0
0
0
0
0
1
1
0
0
0
0
0
0
0
0
0
0
0
0
0
0
0
0
0
0
0
0
0
0
0
0
0
0
0
0
0
0
0
0
0
1
1
0
0
0
0
0
0
0
0
0
0
0
0
0
0
0
0
0
0
0
0
1
1
0
0
0
0
0
0
0
0
0
0
0
0
0
0
0
0
0
0
0
0
0
0
0
0
0
0
0
0
0
0
0
0
0
1
1
0
0
0
0
0
0
0
0
0
0
0
0
0
0
0
0
0
0
0
0
1
1
0
0
0
0
0
0
0
0
0
0
0
0
0
0
0
0
0
0
0
0
0
0
0
0
0
0
0
0
0
0
0
0
0
1
1
0
0
0
0
0
0
0
0
0
0
0
0
0
0
0
0
0
0
0
0
1
1
0
0
0
0
0
0
0
0
0
0
0
0
0
0
0
0
0
0
0
0
0
0
0
0
0
0
0
0
0
0
0
0
0
1
1
0
0
0
0
0
0
0
0
0
0
0
0
0
0
0
0
0
0
0
0
1
1
0
0
0
0
0
0
0
0
0
0
0
0
0
0
0
0
0
0
0
0
0
0
0
0
0
0
0
0
0
0
0
0
0
1
1
0
0
0
0
0
0
0
0
0
0
0
0
0
0
0
0
0
0
0
0
1
1
0
0
0
0
0
0
0
0
0
0
0
0
0
0
0
0
0
0
0
0
0
0
0
0
0
0
0
0
0
0
0
0
0
1
1
0
0
0
0
0
0
0
0
0
0
0
0
0
0
0
0
0
0
0
0
1
1
0
0
0
0
0
0
0
0
0
0
0
0
0
0
0
0
0
0
0
0
0
0
0
0
0
0
0
0
0
0
0
0
0
1
1
0
0
0
0
0
0
0
0
0
0
0
0
0
0
0
0
0
0
0
0
1
1
0
0
0
0
0
0
0
0
0
0
0
0
0
0
0
0
0
0
0
0
0
0
0
0
0
0
0
0
0
0
0
0
0
1
1
0
0
0
0
0
0
0
0
0
0
0
0
0
0
0
0
0
0
0
0
1
1
0
0
0
0
0
0
0
0
0
0
0
0
0
0
0
0
0
0
0
0
0
0
0
0
0
0
0
0
0
0
0
0
0
1
1
0
0
0
0
0
0
0
0
0
0
0
0
0
0
0
0
0
0
0
0
1
1
0
0
0
0
0
0
0
0
0
0
0
0
0
0
0
0
0
0
0
0
0
0
0
0
0
0
0
0
0
0
0
0
0
1
1
0
0
0
0
0
0
0
0
0
0
0
0
0
0
0
0
0
0
0
0
1
1
0
0
0
0
0
0
0
0
0
0
0
0
0
0
0
0
0
0
0
0
0
0
0
0
0
0
0
0
0
0
0
0
0
1
1
0
0
0
0
0
0
0
0
0
0
0
0
0
0
0
0
0
0
0
0
1
1
0
0
0
0
0
0
0
0
0
0
0
0
0
0
0
0
0
0
0
0
0
0
0
0
0
0
0
0
0
0
0
0
0
1
1
0
0
0
0
0
0
0
0
0
0
0
0
0
0
0
0
0
0
0
0
1
1
0
0
0
0
0
0
0
0
0
0
0
0
0
0
0
0
0
0
0
0
0
0
0
0
0
0
0
0
0
0
0
0
0
1
1
0
0
0
0
0
0
0
0
0
0
0
0
0
0
0
0
0
0
0
0
1
1
0
0
0
0
0
0
0
0
0
0
0
0
0
0
0
0
0
0
0
0
0
0
0
0
0
0
0
0
0
0
0
0
0
1
1
0
0
0
0
0
0
0
0
0
0
0
0
0
0
0
0
0
0
0
0
1
1
0
0
0
0
0
0
0
0
0
0
0
0
0
0
0
0
0
0
0
0
0
0
0
0
0
0
0
0
0
0
0
0
0
1
1
0
0
0
0
0
0
0
0
0
0
0
0
0
0
0
0
0
0
0
0
1
1
0
0
0
0
0
0
0
0
0
0
0
0
0
0
0
0
0
0
0
0
0
0
0
0
0
0
0
0
0
0
0
0
0
1
1
0
0
0
0
0
0
0
0
0
0
0
0
0
0
0
0
0
0
0
0
1
1
0
0
0
0
0
0
0
0
0
0
0
0
0
0
0
0
0
0
0
0
0
0
0
0
0
0
0
0
0
0
0
0
0
1
1
0
0
0
0
0
0
0
0
0
0
0
0
0
0
0
0
0
0
0
0
1
1
0
0
0
0
0
0
0
0
0
0
0
0
0
0
0
0
0
0
0
0
0
0
0
0
0
0
0
0
0
0
0
0
0
1
1
0
0
0
0
0
0
0
0
0
0
0
0
0
0
0
0
0
0
0
0
1
1
0
0
0
0
0
0
0
0
0
0
0
0
0
0
0
0
0
0
0
0
0
0
0
0
0
0
0
0
0
0
0
0
0
1
1
0
0
0
0
0
0
0
0
0
0
0
0
0
0
0
0
0
0
0
0
0
1
1
0
0
0
0
0
0
0
0
0
0
0
0
0
0
0
0
0
0
0
0
0
0
0
0
0
0
0
0
0
0
0
0
0
0
1
1
0
0
0
0
0
0
0
0
0
0
0
0
0
0
0
0
0
0
0
0
0
0
0
0
0
0
0
0
0
0
0
0
0
0
0
0
0
0
0
0
0
0
0
0
0
0
0
0
0
0
0
0
0
0
0
0
0
1
1
0
0
0
0
0
0
0
0
0
0
0
0
0
0
0
0
0
0
0
0
0
0
0
0
0
0
0
0
0
0
0
0
0
0
0
0
0
0
0
0
0
0
0
0
0
0
0
0
0
0
0
0
0
0
0
0
0
1
1
0
0
0
0
0
0
0
0
0
0
0
0
0
0
0
0
0
0
0
0
0
0
0
0
0
0
0
0
0
0
0
0
0
0
0
0
0
0
0
0
0
0
0
0
0
0
0
0
0
0
0
0
0
0
0
0
0
1
1
0
0
0
0
0
0
0
0
0
0
0
0
0
0
0
0
0
0
0
0
0
0
0
0
0
0
0
0
0
0
0
0
0
0
0
0
0
0
0
0
0
0
0
0
0
0
0
0
0
0
0
0
0
0
0
0
0
1
1
0
0
0
0
0
0
0
0
0
0
0
0
0
0
0
0
0
0
0
0
0
0
0
0
0
0
0
0
0
0
0
0
0
0
0
0
0
0
0
0
0
0
0
0
0
0
0
0
0
0
0
0
0
0
0
0
0
1
1
0
0
0
0
0
0
0
0
0
0
0
0
0
0
0
0
0
0
0
0
0
0
0
0
0
0
0
0
0
0
0
0
0
0
0
0
0
0
0
0
0
0
0
0
0
0
0
0
0
0
0
0
0
0
0
0
0
1
1
0
0
0
0
0
0
0
0
0
0
0
0
0
0
0
0
0
0
0
0
0
0
0
0
0
0
0
0
0
0
0
0
0
0
0
0
0
0
0
0
0
0
0
0
0
0
0
0
0
0
0
0
0
0
0
0
0
1
1
0
0
0
0
0
0
0
0
0
0
0
0
0
0
0
0
0
0
0
0
0
0
0
0
0
0
0
0
0
0
0
0
0
0
0
0
0
0
0
0
0
0
0
0
0
0
0
0
0
0
0
0
0
0
0
0
0
1
1
0
0
0
0
0
0
0
0
0
0
0
0
0
0
0
0
0
0
0
0
0
0
0
0
0
0
0
0
0
0
0
0
0
0
0
0
0
0
0
0
0
0
0
0
0
0
0
0
0
0
0
0
0
0
0
0
0
1
1
0
0
0
0
0
0
0
0
0
0
0
0
0
0
0
0
0
0
0
0
0
0
0
0
0
0
0
0
0
0
0
0
0
0
0
0
0
0
0
0
0
0
0
0
0
0
0
0
0
0
0
0
0
0
0
0
0
1
1
0
0
0
0
0
0
0
0
0
0
0
0
0
0
0
0
0
0
0
0
0
1
1
0
0
0
0
0
0
0
0
0
0
0
0
0
0
0
0
0
0
0
0
0
0
0
0
0
0
0
0
0
0
0
0
0
0
1
1
0
0
0
0
0
0
0
0
0
0
0
0
0
0
0
0
0
0
0
0
1
1
0
0
0
0
0
0
0
0
0
0
0
0
0
0
0
0
0
0
0
0
0
0
0
0
0
0
0
0
0
0
0
0
0
1
1
0
0
0
0
0
0
0
0
0
0
0
0
0
0
0
0
0
0
0
0
1
1
0
0
0
0
0
0
0
0
0
0
0
0
0
0
0
0
0
0
0
0
0
0
0
0
0
0
0
0
0
0
0
0
0
1
1
0
0
0
0
0
0
0
0
0
0
0
0
0
0
0
0
0
0
0
0
1
1
0
0
0
0
0
0
0
0
0
0
0
0
0
0
0
0
0
0
0
0
0
0
0
0
0
0
0
0
0
0
0
0
0
1
1
0
0
0
0
0
0
0
0
0
0
0
0
0
0
0
0
0
0
0
0
1
1
0
0
0
0
0
0
0
0
0
0
0
0
0
0
0
0
0
0
0
0
0
0
0
0
0
0
0
0
0
0
0
0
0
1
1
0
0
0
0
0
0
0
0
0
0
0
0
0
0
0
0
0
0
0
0
1
1
0
0
0
0
0
0
0
0
0
0
0
0
0
0
0
0
0
0
0
0
0
0
0
0
0
0
0
0
0
0
0
0
0
1
1
0
0
0
0
0
0
0
0
0
0
0
0
0
0
0
0
0
0
0
0
1
1
0
0
0
0
0
0
0
0
0
0
0
0
0
0
0
0
0
0
0
0
0
0
0
0
0
0
0
0
0
0
0
0
0
1
1
0
0
0
0
0
0
0
0
0
0
0
0
0
0
0
0
0
0
0
0
1
1
0
0
0
0
0
0
0
0
0
0
0
0
0
0
0
0
0
0
0
0
0
0
0
0
0
0
0
0
0
0
0
0
0
1
1
0
0
0
0
0
0
0
0
0
0
0
0
0
0
0
0
0
0
0
0
1
1
0
0
0
0
0
0
0
0
0
0
0
0
0
0
0
0
0
0
0
0
0
0
0
0
0
0
0
0
0
0
0
0
0
1
1
0
0
0
0
0
0
0
0
0
0
0
0
0
0
0
0
0
0
0
0
1
1
0
0
0
0
0
0
0
0
0
0
0
0
0
0
0
0
0
0
0
0
0
0
0
0
0
0
0
0
0
0
0
0
0
1
1
0
0
0
0
0
0
0
0
0
0
0
0
0
0
0
0
0
0
0
0
1
1
0
0
0
0
0
0
0
0
0
0
0
0
0
0
0
0
0
0
0
0
0
0
0
0
0
0
0
0
0
0
0
0
0
1
1
0
0
0
0
0
0
0
0
0
0
0
0
0
0
0
0
0
0
0
0
1
1
0
0
0
0
0
0
0
0
0
0
0
0
0
0
0
0
0
0
0
0
0
0
0
0
0
0
0
0
0
0
0
0
0
1
1
0
0
0
0
0
0
0
0
0
0
0
0
0
0
0
0
0
0
0
0
1
1
0
0
0
0
0
0
0
0
0
0
0
0
0
0
0
0
0
0
0
0
0
0
0
0
0
0
0
0
0
0
0
0
0
1
1
0
0
0
0
0
0
0
0
0
0
0
0
0
0
0
0
0
0
0
0
1
1
0
0
0
0
0
0
0
0
0
0
0
0
0
0
0
0
0
0
0
0
0
0
0
0
0
0
0
0
0
0
0
0
0
1
1
0
0
0
0
0
0
0
0
0
0
0
0
0
0
0
0
0
0
0
0
1
1
0
0
0
0
0
0
0
0
0
0
0
0
0
0
0
0
0
0
0
0
0
0
0
0
0
0
0
0
0
0
0
0
0
1
1
0
0
0
0
0
0
0
0
0
0
0
0
0
0
0
0
0
0
0
0
1
1
0
0
0
0
0
0
0
0
0
0
0
0
0
0
0
0
0
0
0
0
0
0
0
0
0
0
0
0
0
0
0
0
0
1
1
0
0
0
0
0
0
0
0
0
0
0
0
0
0
0
0
0
0
0
0
1
1
0
0
0
0
0
0
0
0
0
0
0
0
0
0
0
0
0
0
0
0
0
0
0
0
0
0
0
0
0
0
0
0
0
1
1
0
0
0
0
0
0
0
0
0
0
0
0
0
0
0
0
0
0
0
0
1
1
0
0
0
0
0
0
0
0
0
0
0
0
0
0
0
0
0
0
0
0
0
0
0
0
0
0
0
0
0
0
0
0
0
1
1
0
0
0
0
0
0
0
0
0
0
0
0
0
0
0
0
0
0
0
0
1
1
0
0
0
0
0
0
0
0
0
0
0
0
0
0
0
0
0
0
0
0
0
0
0
0
0
0
0
0
0
0
0
0
0
1
1
0
0
0
0
0
0
0
0
0
0
0
0
0
0
0
0
0
0
0
0
1
1
0
0
0
0
0
0
0
0
0
0
0
0
0
0
0
0
0
0
0
0
0
0
0
0
0
0
0
0
0
0
0
0
0
1
1
0
0
0
0
0
0
0
0
0
0
0
0
0
0
0
0
0
0
0
0
1
1
0
0
0
0
0
0
0
0
0
0
0
0
0
0
0
0
0
0
0
0
0
0
0
0
0
0
0
0
0
0
0
0
0
1
1
0
0
0
0
0
0
0
0
0
0
0
0
0
0
0
0
0
0
0
0
1
1
0
0
0
0
0
0
0
0
0
0
0
0
0
0
0
0
0
0
0
0
0
0
0
0
0
0
0
0
0
0
0
0
0
1
1
1
1
1
1
1
1
1
1
1
1
1
1
1
1
1
1
1
1
1
1
1
1
1
1
1
1
1
1
1
1
1
1
1
1
1
1
1
1
1
1
1
1
1
1
1
1
1
1
1
1
1
1
1
1
1
1
				</DataArray>
				<DataArray type="Float64" Name="h" NumberOfComponents="1" Format="ascii">
1.2361257795
1.2330715863
1.2332620450
1.2336418137
1.2342088182
1.2349583409
1.2358817792
1.2369657088
1.2381899806
1.2395269719
1.2409417643
1.2423929660
1.2438350236
1.2452212601
1.2465076275
1.2476562115
1.2486374465
1.2494317323
1.2500289765
1.2504259360
1.2506235619
1.2506235619
1.1039998642
1.1029696747
1.1037039417
1.1052102505
1.1075661692
1.1108903559
1.1153384740
1.1210890491
1.1283143431
1.1371334027
1.1475521623
1.1594056866
1.1723260260
1.1857634722
1.1990708919
1.2116250081
1.2229420397
1.2327454891
1.2409676118
1.2477038751
1.2531475387
1.2575274151
1.2610645924
1.2639479803
1.2663251088
1.2683041239
1.2699601002
1.2713430786
1.2724862755
1.2734118987
1.2741353246
1.2746680171
1.2750183848
1.2751920466
1.2751920466
1.2330715863
1.2301184139
1.2303816638
1.2309042289
1.2316784341
1.2326911936
1.2339228767
1.2353466985
1.2369274617
1.2386217064
1.2403791087
1.2421446704
1.2438622592
1.2454786005
1.2469474391
1.2482327893
1.2493103607
1.2501679420
1.2508035226
1.2512212862
1.2514278071
1.2506235619
1.1029696747
1.1020259755
1.1028405957
1.1045119277
1.1071248574
1.1108056857
1.1157135881
1.1220201588
1.1298729901
1.1393424550
1.1503608799
1.1626742797
1.1758314184
1.1892322989
1.2022326608
1.2142660573
1.2249400179
1.2340748243
1.2416809036
1.2479019641
1.2529501245
1.2570512039
1.2604105192
1.2631959249
1.2655336986
1.2675132814
1.2691946226
1.2706162624
1.2718030734
1.2727714097
1.2735326505
1.2740956070
1.2744669835
1.2746513835
1.2751920466
1.2333442510
1.2303928443
1.2306530916
1.2311693985
1.2319336206
1.2329320716
1.2341445096
1.2355436796
1.2370942209
1.2387529601
1.2404703919
1.2421928529
1.2438659402
1.2454382948
1.2468655104
1.2481131710
1.2491581565
1.2499890208
1.2506042154
1.2510082133
1.2512077910
1.2504394623
1.1027855290
1.1018726713
1.1027032901
1.1044050126
1.1070592648
1.1107865685
1.1157374205
1.1220716670
1.1299231510
1.1393495028
1.1502762584
1.1624537947
1.1754486713
1.1886887120
1.2015587343
1.2135128865
1.2241652800
1.2333295545
1.2410015298
1.2473084133
1.2524482615
1.2566371636
1.2600750667
1.2629278901
1.2653221972
1.2673488521
1.2690695591
1.2705244224
1.2717394282
1.2727315302
1.2735122553
1.2740902523
1.2744719177
1.2746615529
1.2752107527
1.2338678901
1.2309190802
1.2311733237
1.2316771404
1.2324214934
1.2333915602
1.2345659548
1.2359165607
1.2374077532
1.2389969584
1.2406362842
1.2422746548
1.2438609951
1.2453476190
1.2466936619
1.2478677241
1.2488489530
1.2496274155
1.2502025189
1.2505793774
1.2507652410
1.2500673207
1.1024185286
1.1015662503
1.1024284199
1.1041899927
1.1069254540
1.1107438595
1.1157786859
1.1221669971
1.1300162502
1.1393598464
1.1501104869
1.1620266760
1.1747082488
1.1876353386
1.2002481739
1.2120413413
1.2226435251
1.2318576342
1.2396526803
1.2461243587
1.2514430823
1.2558052560
1.2593995317
1.2623873475
1.2648953210
1.2670167923
1.2688167553
1.2703383459
1.2716097725
1.2726492419
1.2734686596
1.2740764379
1.2744784347
1.2746784026
1.2752442870
1.2346004817
1.2316534560
1.2318987207
1.2323839121
1.2330987641
1.2340269059
1.2351454190
1.2364250784
1.2378300056
1.2393185834
1.2408452749
1.2423626867
1.2438244221
1.2451879280
1.2464172845
1.2474853208
1.2483744079
1.2490768341
1.2495935074
1.2499306475
1.2500963794
1.2495006731
1.1018712428
1.1011071626
1.1020155312
1.1038645421
1.1067182382
1.1106687294
1.1158248056
1.1222910832
1.1301380829
1.1393658003
1.1498694217
1.1614182966
1.1736568772
1.1861360306
1.1983725133
1.2099193993
1.2204301205
1.2296973228
1.2376556099
1.2443572343
1.2499325826
1.2545481973
1.2583745466
1.2615648891
1.2642446468
1.2665099366
1.2684301078
1.2700525721
1.2714088297
1.2725190759
1.2733959711
1.2740477780
1.2744797305
1.2746948918
1.2752847478
1.2354816013
1.2325336435
1.2327670532
1.2332277425
1.2339039972
1.2347776490
1.2358240479
1.2370127947
1.2383079011
1.2396691027
1.2410538718
1.2424193679
1.2437248850
1.2449340657
1.2460169481
1.2469514893
1.2477240425
1.2483297620
1.2487716583
1.2490576678
1.2491973700
1.2487320673
1.1011465883
1.1004953403
1.1014632514
1.1034246027
1.1064295009
1.1105479780
1.1158574634
1.1224223639
1.1302684949
1.1393562627
1.1495603968
1.1606625294
1.1723579354
1.1842789100
1.1960327457
1.2072458520
1.2176084923
1.2269090432
1.2350464053
1.2420222147
1.2479167664
1.2528567667
1.2569865470
1.2604459552
1.2633564973
1.2658162154
1.2678991144
1.2696577161
1.2711277506
1.2723321955
1.2732850087
1.2739945966
1.2744656761
1.2747006263
1.2753202414
1.2364356601
1.2334824156
1.2337013184
1.2341321466
1.2347616533
1.2355698055
1.2365302254
1.2376114625
1.2387776855
1.2399903931
1.2412105937
1.2424005962
1.2435260064
1.2445572718
1.2454709619
1.2462506968
1.2468873314
1.2473794339
1.2477327623
1.2479577377
1.2480661865
1.2477553139
1.1002469797
1.0997295596
1.1007686936
1.1028638951
1.1060479205
1.1103641154
1.1158531641
1.1225337802
1.1303824498
1.1393170377
1.1491906982
1.1597975042
1.1708845488
1.1821681319
1.1933519501
1.2041458189
1.2142894148
1.2235779521
1.2318804481
1.2391470447
1.2454017140
1.2507225551
1.2552191235
1.2590110039
1.2622112666
1.2649174851
1.2672075089
1.2691391328
1.2707529505
1.2720754801
1.2731226481
1.2739035021
1.2744225603
1.2746816897
1.2753344680
1.2373766042
1.2344128642
1.2346150023
1.2350114696
1.2355875339
1.2363214051
1.2371851694
1.2381466068
1.2391703967
1.2402201847
1.2412608776
1.2422602315
1.2431903797
1.2440287275
1.2447585030
1.2453691470
1.2458562649
1.2462222489
1.2464762534
1.2466320951
1.2467048717
1.2465681347
1.0991735038
1.0988068870
1.0999269297
1.1021734730
1.1055587109
1.1100954391
1.1157837661
1.1225937079
1.1304509552
1.1392309169
1.1487656770
1.1588607929
1.1693116664
1.1799138825
1.1904653177
1.2007631853
1.2106074677
1.2198146000
1.2282361719
1.2357771942
1.2424045786
1.2481418056
1.2530553152
1.2572363182
1.2607830486
1.2637883662
1.2663316740
1.2684751983
1.2702644665
1.2717300771
1.2728906139
1.2737564088
1.2743322858
1.2746199333
1.2753056969
1.2382128806
1.2352337641
1.2354174729
1.2357763272
1.2362942694
1.2369480023
1.2377084087
1.2385428838
1.2394169999
1.2402968571
1.2411514318
1.2419539252
1.2426828362
1.2433222635
1.2438618118
1.2442965368
1.2446267571
1.2448589149
1.2450061608
1.2450867336
1.2451202816
1.2451732543
1.0979241091
1.0977211489
1.0989295623
1.1013405155
1.1049427924
1.1097157612
1.1156168840
1.1225669619
1.1304422742
1.1390783393
1.1482878611
1.1578860356
1.1677097345
1.1776235153
1.1875102350
1.1972518822
1.2067156747
1.2157540516
1.2242183262
1.2319818030
1.2389603933
1.2451215802
1.2504822659
1.2550968892
1.2590408973
1.2623962402
1.2652397853
1.2676359699
1.2696344185
1.2712698596
1.2725640418
1.2735292389
1.2741711947
1.2744918719
1.2752053099
1.2388530725
1.2358553770
1.2360197839
1.2363394002
1.2367970799
1.2373683571
1.2380233175
1.2387293869
1.2394533732
1.2401640178
1.2408343332
1.2414426904
1.2419734697
1.2424168539
1.2427681978
1.2430276378
1.2431998732
1.2432953905
1.2433318233
1.2433329427
1.2433245220
1.2435790322
1.0964919725
1.0964615565
1.0977634254
1.1003471910
1.1041759429
1.1091939928
1.1153159911
1.1224153390
1.1303225924
1.1388376398
1.1477560982
1.1569002601
1.1661395963
1.1753938391
1.1846165778
1.1937658380
1.2027774358
1.2115518410
1.2199587749
1.2278586379
1.2351294851
1.2416877266
1.2474982638
1.2525717152
1.2569521758
1.2607028282
1.2638919877
1.2665823670
1.2688255583
1.2706596238
1.2721095188
1.2731899213
1.2739080752
1.2742667061
1.2749954784
1.2392120597
1.2361955441
1.2363407389
1.2366214363
1.2370196685
1.2375101628
1.2380626097
1.2386448329
1.2392251179
1.2397748782
1.2402709299
1.2406963087
1.2410405461
1.2412990444
1.2414720151
1.2415638600
1.2415830306
1.2415437695
1.2414684982
1.2413876887
1.2413351860
1.2417997727
1.0948639187
1.0950113712
1.0964092870
1.0991694379
1.1032277437
1.1084933634
1.1148399746
1.1220974435
1.1300559055
1.1384846909
1.1471645832
1.1559218280
1.1646487227
1.1733049366
1.1818978037
1.1904480207
1.1989554216
1.2073752883
1.2156123235
1.2235350958
1.2310027508
1.2378925728
1.2441208966
1.2496509468
1.2544878975
1.2586675235
1.2622418890
1.2652661773
1.2677901764
1.2698532478
1.2714827703
1.2726958052
1.2735014345
1.2739035374
1.2746261098
1.2392159848
1.2361843250
1.2363114763
1.2365557237
1.2368985225
1.2373141086
1.2377720990
1.2382409645
1.2386905569
1.2390948176
1.2394339517
1.2396949803
1.2398716893
1.2399636691
1.2399749093
1.2399130311
1.2397893184
1.2396211581
1.2394358206
1.2392717058
1.2391732064
1.2398535430
1.0930173705
1.0933450219
1.0948390925
1.0977744298
1.1020593798
1.1075696791
1.1141419087
1.1215679354
1.1296036374
1.1379927866
1.1465029144
1.1549604473
1.1632706272
1.1714180140
1.1794461667
1.1874225581
1.1954014620
1.2033934161
1.2113494891
1.2191659112
1.2267047636
1.2338222908
1.2403966555
1.2463457019
1.2516312663
1.2562538689
1.2602407763
1.2636321861
1.2664705037
1.2687927689
1.2706267899
1.2719911588
1.2728966193
1.2733483119
1.2740317395
1.2388065983
1.2357678450
1.2358792470
1.2360917302
1.2363863493
1.2367370566
1.2371135721
1.2374850897
1.2378229293
1.2381032362
1.2383090339
1.2384305262
1.2384647619
1.2384143992
1.2382860114
1.2380892093
1.2378369088
1.2375486658
1.2372563589
1.2370076288
1.2368606852
1.2377598308
1.0909173731
1.0914252078
1.0930131467
1.0961178545
1.1006210744
1.1063689996
1.1131670404
1.1207758533
1.1289233447
1.1373318530
1.1457559875
1.1540178029
1.1620258905
1.1697758876
1.1773312502
1.1847899848
1.1922481297
1.1997661171
1.2073459618
1.2149260006
1.2223920811
1.2296009535
1.2364093977
1.2426987745
1.2483885225
1.2534390091
1.2578448543
1.2616229783
1.2648012412
1.2674090062
1.2694709846
1.2710052586
1.2720232328
1.2725309149
1.2731289531
1.2379449204
1.2349114080
1.2350104537
1.2351980025
1.2354547772
1.2357545003
1.2360669821
1.2363620069
1.2366120627
1.2367949990
1.2368959586
1.2369074458
1.2368287391
1.2366644141
1.2364223729
1.2361128452
1.2357489070
1.2353509034
1.2349547036
1.2346186197
1.2344191416
1.2355376041
1.0885138149
1.0892001547
1.0908773950
1.0941411296
1.0988492304
1.1048247848
1.1118500393
1.1196620804
1.1279665751
1.1364669786
1.1449035256
1.1530882960
1.1609239553
1.1684050831
1.1756009629
1.1826253501
1.1896025351
1.1966335048
1.2037692336
1.2109975530
1.2182441658
1.2253874216
1.2322834105
1.2387924398
1.2447992634
1.2502243679
1.2550247025
1.2591863084
1.2627145744
1.2656243537
1.2679321046
1.2696519110
1.2707937260
1.2713632992
1.2718154088
1.2366127621
1.2336004476
1.2336915266
1.2338628950
1.2340948843
1.2343608607
1.2346304990
1.2348738209
1.2350639785
1.2351798634
1.2352079297
1.2351420485
1.2349826854
1.2347351888
1.2344075137
1.2340090317
1.2335512455
1.2330534533
1.2325544073
1.2321246552
1.2318652143
1.2332008362
1.0857369464
1.0865991014
1.0883591187
1.0917672610
1.0966624964
1.1028543081
1.1101119155
1.1181569365
1.1266773589
1.1353580969
1.1439212601
1.1521619232
1.1599676270
1.1673214160
1.1742870286
1.1809818392
1.1875460706
1.1941103745
1.2007679243
1.2075563613
1.2144502717
1.2213663442
1.2281806922
1.2347521823
1.2409451369
1.2466470554
1.2517772148
1.2562859632
1.2601490594
1.2633594014
1.2659187402
1.2678322220
1.2691049710
1.2697404521
1.2699725374
1.2348135789
1.2318409331
1.2319292590
1.2320947786
1.2323172373
1.2325693361
1.2328201766
1.2330394513
1.2332002800
1.2332817851
1.2332708297
1.2331616783
1.2329549435
1.2326556232
1.2322704525
1.2318063892
1.2312713708
1.2306812733
1.2300759280
1.2295397181
1.2292070265
1.2307546989
1.0824947866
1.0835296376
1.0853645528
1.0888985353
1.0939595321
1.1003566618
1.1078584748
1.1161793066
1.1249922546
1.1339611985
1.1427835206
1.1512283612
1.1591586132
1.1665366765
1.1734120707
1.1798969075
1.1861376812
1.1922845847
1.1984640364
1.2047584520
1.2111930135
1.2177325685
1.2242899656
1.2307425710
1.2369527903
1.2427884373
1.2481375458
1.2529148800
1.2570622501
1.2605441062
1.2633406984
1.2654423047
1.2668447206
1.2675461942
1.2674740812
1.2325726579
1.2296592880
1.2297506704
1.2299217998
1.2301515199
1.2304113920
1.2306693182
1.2308939050
1.2310573747
1.2311381346
1.2311224689
1.2310040222
1.2307825145
1.2304614962
1.2300452266
1.2295366384
1.2289378478
1.2282582533
1.2275358741
1.2268701795
1.2264413299
1.2281926440
1.0786743443
1.0798788954
1.0817805194
1.0854181341
1.0906205627
1.0972144739
1.1049824430
1.1136393738
1.1228438205
1.1322325802
1.1414682098
1.1502825703
1.1585036561
1.1660651701
1.1729962776
1.1793983813
1.1854180826
1.1912174917
1.1969476503
1.2027279977
1.2086303103
1.2146700265
1.2208067044
1.2269524104
1.2329865840
1.2387747943
1.2441864140
1.2491069460
1.2534448078
1.2571325033
1.2601232661
1.2623866640
1.2639041575
1.2646652390
1.2642017177
1.2299355172
1.2271006525
1.2272012102
1.2273899771
1.2276444872
1.2279345612
1.2282261291
1.2284858045
1.2286839070
1.2287970690
1.2288099254
1.2287144426
1.2285083987
1.2281928176
1.2277682503
1.2272319524
1.2265776784
1.2258044067
1.2249436993
1.2241100787
1.2235465327
1.2254894322
1.0741452112
1.0755171259
1.0774791568
1.0811953791
1.0865132921
1.0933009014
1.1013718091
1.1104483281
1.1201714329
1.1301402784
1.1399682457
1.1493357071
1.1580246080
1.1659329215
1.1730658567
1.1795121685
1.1854162618
1.1909480409
1.1962767520
1.2015509740
1.2068819387
1.2123321642
1.2179105220
1.2235734321
1.2292327220
1.2347695261
1.2400510046
1.2449455401
1.2493347113
1.2531204758
1.2562268110
1.2585984862
1.2601982939
1.2610035395
1.2600693463
1.2269663705
1.2242274029
1.2243432236
1.2245615680
1.2248582029
1.2252005377
1.2255516702
1.2258752188
1.2261384994
1.2263152199
1.2263872236
1.2263436909
1.2261793851
1.2258917312
1.2254763584
1.2249231569
1.2242146617
1.2233343112
1.2222997373
1.2212371780
1.2204747672
1.2225932204
1.0687710615
1.0703092181
1.0723313861
1.0760997720
1.0815079094
1.0884962657
1.0969283039
1.1065383246
1.1169418225
1.1276839428
1.1383095133
1.1484302273
1.1577703170
1.1661865652
1.1736595881
1.1802672572
1.1861534365
1.1914955307
1.1964777318
1.2012715656
1.2060199456
1.2108254580
1.2157428186
1.2207752015
1.2258758199
1.2309556428
1.2358962565
1.2405645542
1.2448272589
1.2485629733
1.2516691550
1.2540653093
1.2556934985
1.2565166279
1.2550544567
1.2237459823
1.2211172168
1.2212539705
1.2215129997
1.2218678527
1.2222828549
1.2227174006
1.2231310874
1.2234870885
1.2237549918
1.2239126607
1.2239453397
1.2238436781
1.2236004225
1.2232050687
1.2226384045
1.2218685254
1.2208566791
1.2195946438
1.2182096784
1.2171412160
1.2194149475
1.0624258855
1.0641310912
1.0662267553
1.0700217531
1.0755000191
1.0827143119
1.0915969368
1.1018940290
1.1131804962
1.1249237218
1.1365751657
1.1476583905
1.1578291347
1.1669005492
1.1748320122
1.1816964122
1.1876426235
1.1928588643
1.1975442283
1.2018894472
1.2060623861
1.2101975564
1.2143882919
1.2186808944
1.2230719535
1.2275104335
1.2319054974
1.2361381248
1.2400752063
1.2435841517
1.2465441428
1.2488538977
1.2504364617
1.2512405691
1.2492292015
1.2203680252
1.2178597058
1.2180221902
1.2183313030
1.2187579856
1.2192628859
1.2198009002
1.2203266456
1.2207980608
1.2211794441
1.2214435019
1.2215703941
1.2215455458
1.2213559289
1.2209836555
1.2203985599
1.2195506291
1.2183703538
1.2168050685
1.2149574119
1.2134002901
1.2158044365
1.0549962658
1.0568724573
1.0590839611
1.0628878045
1.0684341728
1.0759358009
1.0854080487
1.0965992187
1.1090180330
1.1220218338
1.1349394317
1.1471870154
1.1583449054
1.1681857505
1.1766566571
1.1838361502
1.1898873210
1.1950154247
1.1994369221
1.2033602046
1.2069729760
1.2104339475
1.2138663444
1.2173521729
1.2209276170
1.2245811974
1.2282570425
1.2318623630
1.2352788773
1.2383774269
1.2410314608
1.2431282850
1.2445780629
1.2453188219
1.2427829334
1.2169358018
1.2145534650
1.2147450661
1.2151108997
1.2156190296
1.2162259838
1.2168815323
1.2175345199
1.2181367148
1.2186461001
1.2190291870
1.2192600292
1.2193178263
1.2191827458
1.2188282354
1.2182111186
1.2172589746
1.2158606062
1.2138908244
1.2113733848
1.2090061576
1.2115105355
1.0463293904
1.0483864594
1.0508225114
1.0546532670
1.0603252218
1.0682560146
1.0785416986
1.0909064730
1.1047548702
1.1192956703
1.1337060943
1.1472815295
1.1595287786
1.1701921461
1.1792227823
1.1867204587
1.1928746060
1.1979153793
1.2020802028
1.2055946904
1.2086624501
1.2114595761
1.2141304484
1.2167837396
1.2194878490
1.2222671017
1.2251019331
1.2279325434
1.2306666908
1.2331924109
1.2353915037
1.2371523536
1.2383819499
1.2390140739
1.2360248890
1.2135585494
1.2113026877
1.2115247521
1.2119499351
1.2125432828
1.2132569341
1.2140351024
1.2148202811
1.2155573570
1.2161972226
1.2166994675
1.2170314200
1.2171655648
1.2170748457
1.2167233512
1.2160531538
1.2149647144
1.2132914671
1.2107946052
1.2073119358
1.2035446573
1.2061119725
1.0359594350
1.0382219522
1.0411995430
1.0452455897
1.0512963115
1.0599823391
1.0714472242
1.0853498016
1.1009503658
1.1172776648
1.1333410045
1.1483168064
1.1616551354
1.1730960301
1.1826188024
1.1903639546
1.1965603972
1.2014705493
1.2053554938
1.2084570576
1.2109908668
1.2131441229
1.2150741900
1.2169072613
1.2187351090
1.2206109213
1.2225480479
1.2245209330
1.2264694467
1.2283088513
1.2299415992
1.2312696977
1.2322078990
1.2326937004
1.2293579071
1.2103481665
1.2082141318
1.2084653263
1.2089471591
1.2096215718
1.2104360968
1.2113289844
1.2122357755
1.2130936872
1.2138456430
1.2144435539
1.2148476193
1.2150238860
1.2149394310
1.2145515474
1.2137908431
1.2125322463
1.2105446466
1.2074234929
1.2026197971
1.1963390673
1.1989201034
1.0218473926
1.0243875242
1.0293314250
1.0345802712
1.0418347309
1.0519504437
1.0651207824
1.0809432697
1.0985384958
1.1167624707
1.1344712709
1.1507479728
1.1650195056
1.1770556785
1.1868920418
1.1947288844
1.2008448128
1.2055381103
1.2090927661
1.2117633419
1.2137723272
1.2153115821
1.2165438426
1.2176043596
1.2185995303
1.2196033224
1.2206558512
1.2217627827
1.2228969701
1.2240056924
1.2250199173
1.2258646940
1.2264716913
1.2267893014
1.2232283434
1.2074187413
1.2053968027
1.2056728397
1.2062026729
1.2069449444
1.2078421326
1.2088256725
1.2098227511
1.2107607765
1.2115716708
1.2121956894
1.2125809982
1.2126818066
1.2124548689
1.2118503668
1.2107981644
1.2091822781
1.2067825836
1.2031395288
1.1972557042
1.1873005137
1.1898218696
0.9939500743
0.9970220624
1.0134186985
1.0238614012
1.0341435909
1.0465148483
1.0616985922
1.0794556592
1.0988845640
1.1187348731
1.1377516820
1.1549603768
1.1697984984
1.1820939627
1.1919578033
1.1996593608
1.2055279950
1.2098938432
1.2130573817
1.2152787556
1.2167802638
1.2177515448
1.2183537393
1.2187238856
1.2189753822
1.2191952989
1.2194434585
1.2197511661
1.2201209811
1.2205317190
1.2209450729
1.2213133096
1.2215899382
1.2217385324
1.2180648587
1.2048865805
1.2029620680
1.2032564833
1.2038213116
1.2046116650
1.2055643818
1.2066028351
1.2076434965
1.2085997110
1.2093849757
1.2099150911
1.2101038681
1.2098541388
1.2090410991
1.2074767169
1.2048444825
1.2005706153
1.1935448969
1.1814838850
1.1593385535
1.1149520418
1.0160404493
0.8849161443
0.9557931694
1.0488215498
1.0366415417
1.0348356742
1.0359824227
1.0414688125
1.0515237884
1.0658325472
1.0835681398
1.1034310049
1.1238599095
1.1433685295
1.1608564131
1.1757368339
1.1878778926
1.1974541436
1.2047926272
1.2102613997
1.2142105006
1.2169460876
1.2187248066
1.2197614245
1.2202373195
1.2203066828
1.2201030595
1.2197411853
1.2193150151
1.2188974525
1.2185388205
1.2182653887
1.2180827376
1.2179801063
1.2179354279
1.2179237551
1.2179241817
1.2142227601
1.2028665519
1.2010201255
1.2013260820
1.2019124490
1.2027312287
1.2037142048
1.2047774138
1.2058275129
1.2067650076
1.2074869732
1.2078886494
1.2078577015
1.2072634218
1.2059384526
1.2036416801
1.1999964647
1.1943821753
1.1857221138
1.1720608255
1.1496574325
1.1109816737
1.0413408879
0.8863916726
0.9577012113
1.0110171950
1.0194924818
1.0268742194
1.0335669600
1.0421566429
1.0539457894
1.0693252679
1.0878708442
1.1084343184
1.1294373576
1.1493096975
1.1669018227
1.1816461765
1.1934761604
1.2026430444
1.2095365699
1.2145631541
1.2180896485
1.2204240130
1.2218158788
1.2224696732
1.2225562960
1.2222209847
1.2215914678
1.2207806897
1.2198852342
1.2189855493
1.2181442635
1.2174038579
1.2167889468
1.2163089738
1.2159611846
1.2157372137
1.2156283115
1.2119491968
1.2014592143
1.1996672957
1.1999783872
1.2005739596
1.2014038839
1.2023964249
1.2034624717
1.2045018666
1.2054063848
1.2060624273
1.2063529660
1.2061519204
1.2053140820
1.2036590903
1.2009384404
1.1967841117
1.1906252503
1.1815333263
1.1679419718
1.1471152430
1.1141658880
1.0622249549
0.9627725319
0.9852064138
1.0117581300
1.0200525138
1.0275625804
1.0352525469
1.0447811380
1.0572303441
1.0730687238
1.0920250050
1.1130278165
1.1344303752
1.1545381368
1.1721462752
1.1867016518
1.1981973172
1.2069566007
1.2134287970
1.2180564511
1.2212216599
1.2232333464
1.2243340606
1.2247183560
1.2245473510
1.2239578971
1.2230718165
1.2219990252
1.2208359624
1.2196659977
1.2185575130
1.2175609568
1.2167105295
1.2160259666
1.2155143855
1.2151759430
1.2150081666
1.2113712910
1.2007354789
1.1989708790
1.1992809733
1.1998740574
1.2006990333
1.2016824798
1.2027327310
1.2037462465
1.2046104919
1.2052067965
1.2054128950
1.2050978523
1.2041132350
1.2022797326
1.1993583193
1.1950076052
1.1887190327
1.1797000034
1.1666799964
1.1475828991
1.1190111756
1.0772964204
1.0080433511
1.0062503614
1.0166559931
1.0229118421
1.0299693900
1.0379971152
1.0478959498
1.0605319737
1.0764254912
1.0954435963
1.1165999305
1.1382099021
1.1584554514
1.1760327510
1.1904065890
1.2016163934
1.2100420469
1.2161816467
1.2205080012
1.2234162989
1.2252167653
1.2261467369
1.2263933955
1.2261106276
1.2254290566
1.2244658266
1.2233276455
1.2221088328
1.2208915566
1.2197435576
1.2187147928
1.2178390034
1.2171353815
1.2166103532
1.2162634059
1.2160915398
1.2125007092
1.2007287602
1.1989616335
1.1992645849
1.1998434338
1.2006472127
1.2016025448
1.2026176262
1.2035886310
1.2044025114
1.2049399838
1.2050785292
1.2046877826
1.2036217177
1.2017072716
1.1987184873
1.1943397241
1.1881125701
1.1793417535
1.1669505934
1.1492638102
1.1237263767
1.0881140655
1.0353802074
1.0220590638
1.0229584910
1.0266563327
1.0328232879
1.0407055682
1.0505899020
1.0631278429
1.0788501423
1.0977215552
1.1188293157
1.1404733609
1.1607518593
1.1782751555
1.1925021192
1.2035098418
1.2117143716
1.2176466145
1.2218004536
1.2245807971
1.2262997439
1.2271922276
1.2274416666
1.2271982428
1.2265892619
1.2257289242
1.2247208528
1.2236554373
1.2226096216
1.2216442396
1.2208005511
1.2201022359
1.2195577536
1.2191630744
1.2189086428
1.2187848053
1.2152453252
1.2014345083
1.1996336593
1.1999233768
1.2004762917
1.2012425306
1.2021502716
1.2031096563
1.2040191719
1.2047683231
1.2052406016
1.2053166557
1.2048698703
1.2037590962
1.2018183778
1.1988327270
1.1945044244
1.1884058507
1.1798965167
1.1680018508
1.1512467271
1.1274804112
1.0950501213
1.0501951544
1.0323022023
1.0286687181
1.0304812970
1.0356918211
1.0430860862
1.0526295221
1.0648392730
1.0802321701
1.0988131995
1.1197073552
1.1412132792
1.1613923402
1.1788142252
1.1929241005
1.2038170644
1.2119226227
1.2177848025
1.2219064369
1.2246971653