<VTKFile type="UnstructuredGrid" version="0.1">
	<UnstructuredGrid>
		<Piece NumberOfPoints="13548" NumberOfCells="3387">
			<CellData>
				<DataArray type="Int32" Name="ghost" NumberOfComponents="1" Format="ascii">
1
1
1
1
1
1
1
1
1
1
1
1
1
1
1
1
1
1
1
1
1
1
1
1
1
1
1
1
1
1
1
1
1
1
1
1
1
1
1
1
1
1
1
1
1
1
1
1
1
1
1
1
1
1
1
1
1
1
0
0
0
0
0
0
0
0
0
0
0
0
0
0
0
0
0
0
0
0
1
1
0
0
0
0
0
0
0
0
0
0
0
0
0
0
0
0
0
0
0
0
0
0
0
0
0
0
0
0
0
0
0
0
0
1
1
0
0
0
0
0
0
0
0
0
0
0
0
0
0
0
0
0
0
0
0
1
1
0
0
0
0
0
0
0
0
0
0
0
0
0
0
0
0
0
0
0
0
0
0
0
0
0
0
0
0
0
0
0
0
0
1
1
0
0
0
0
0
0
0
0
0
0
0
0
0
0
0
0
0
0
0
0
1
1
0
0
0
0
0
0
0
0
0
0
0
0
0
0
0
0
0
0
0
0
0
0
0
0
0
0
0
0
0
0
0
0
0
1
1
0
0
0
0
0
0
0
0
0
0
0
0
0
0
0
0
0
0
0
0
1
1
0
0
0
0
0
0
0
0
0
0
0
0
0
0
0
0
0
0
0
0
0
0
0
0
0
0
0
0
0
0
0
0
0
1
1
0
0
0
0
0
0
0
0
0
0
0
0
0
0
0
0
0
0
0
0
1
1
0
0
0
0
0
0
0
0
0
0
0
0
0
0
0
0
0
0
0
0
0
0
0
0
0
0
0
0
0
0
0
0
0
1
1
0
0
0
0
0
0
0
0
0
0
0
0
0
0
0
0
0
0
0
0
1
1
0
0
0
0
0
0
0
0
0
0
0
0
0
0
0
0
0
0
0
0
0
0
0
0
0
0
0
0
0
0
0
0
0
1
1
0
0
0
0
0
0
0
0
0
0
0
0
0
0
0
0
0
0
0
0
1
1
0
0
0
0
0
0
0
0
0
0
0
0
0
0
0
0
0
0
0
0
0
0
0
0
0
0
0
0
0
0
0
0
0
1
1
0
0
0
0
0
0
0
0
0
0
0
0
0
0
0
0
0
0
0
0
1
1
0
0
0
0
0
0
0
0
0
0
0
0
0
0
0
0
0
0
0
0
0
0
0
0
0
0
0
0
0
0
0
0
0
1
1
0
0
0
0
0
0
0
0
0
0
0
0
0
0
0
0
0
0
0
0
1
1
0
0
0
0
0
0
0
0
0
0
0
0
0
0
0
0
0
0
0
0
0
0
0
0
0
0
0
0
0
0
0
0
0
1
1
0
0
0
0
0
0
0
0
0
0
0
0
0
0
0
0
0
0
0
0
1
1
0
0
0
0
0
0
0
0
0
0
0
0
0
0
0
0
0
0
0
0
0
0
0
0
0
0
0
0
0
0
0
0
0
1
1
0
0
0
0
0
0
0
0
0
0
0
0
0
0
0
0
0
0
0
0
1
1
0
0
0
0
0
0
0
0
0
0
0
0
0
0
0
0
0
0
0
0
0
0
0
0
0
0
0
0
0
0
0
0
0
1
1
0
0
0
0
0
0
0
0
0
0
0
0
0
0
0
0
0
0
0
0
1
1
0
0
0
0
0
0
0
0
0
0
0
0
0
0
0
0
0
0
0
0
0
0
0
0
0
0
0
0
0
0
0
0
0
1
1
0
0
0
0
0
0
0
0
0
0
0
0
0
0
0
0
0
0
0
0
1
1
0
0
0
0
0
0
0
0
0
0
0
0
0
0
0
0
0
0
0
0
0
0
0
0
0
0
0
0
0
0
0
0
0
1
1
0
0
0
0
0
0
0
0
0
0
0
0
0
0
0
0
0
0
0
0
1
1
0
0
0
0
0
0
0
0
0
0
0
0
0
0
0
0
0
0
0
0
0
0
0
0
0
0
0
0
0
0
0
0
0
1
1
0
0
0
0
0
0
0
0
0
0
0
0
0
0
0
0
0
0
0
0
1
1
0
0
0
0
0
0
0
0
0
0
0
0
0
0
0
0
0
0
0
0
0
0
0
0
0
0
0
0
0
0
0
0
0
1
1
0
0
0
0
0
0
0
0
0
0
0
0
0
0
0
0
0
0
0
0
1
1
0
0
0
0
0
0
0
0
0
0
0
0
0
0
0
0
0
0
0
0
0
0
0
0
0
0
0
0
0
0
0
0
0
1
1
0
0
0
0
0
0
0
0
0
0
0
0
0
0
0
0
0
0
0
0
1
1
0
0
0
0
0
0
0
0
0
0
0
0
0
0
0
0
0
0
0
0
0
0
0
0
0
0
0
0
0
0
0
0
0
1
1
0
0
0
0
0
0
0
0
0
0
0
0
0
0
0
0
0
0
0
0
1
1
0
0
0
0
0
0
0
0
0
0
0
0
0
0
0
0
0
0
0
0
0
0
0
0
0
0
0
0
0
0
0
0
0
1
1
0
0
0
0
0
0
0
0
0
0
0
0
0
0
0
0
0
0
0
0
1
1
0
0
0
0
0
0
0
0
0
0
0
0
0
0
0
0
0
0
0
0
0
0
0
0
0
0
0
0
0
0
0
0
0
1
1
0
0
0
0
0
0
0
0
0
0
0
0
0
0
0
0
0
0
0
0
1
1
0
0
0
0
0
0
0
0
0
0
0
0
0
0
0
0
0
0
0
0
0
0
0
0
0
0
0
0
0
0
0
0
0
1
1
0
0
0
0
0
0
0
0
0
0
0
0
0
0
0
0
0
0
0
0
1
1
0
0
0
0
0
0
0
0
0
0
0
0
0
0
0
0
0
0
0
0
0
0
0
0
0
0
0
0
0
0
0
0
0
1
1
0
0
0
0
0
0
0
0
0
0
0
0
0
0
0
0
0
0
0
0
1
1
0
0
0
0
0
0
0
0
0
0
0
0
0
0
0
0
0
0
0
0
0
0
0
0
0
0
0
0
0
0
0
0
0
1
1
0
0
0
0
0
0
0
0
0
0
0
0
0
0
0
0
0
0
0
0
1
1
0
0
0
0
0
0
0
0
0
0
0
0
0
0
0
0
0
0
0
0
0
0
0
0
0
0
0
0
0
0
0
0
0
1
1
0
0
0
0
0
0
0
0
0
0
0
0
0
0
0
0
0
0
0
0
1
1
0
0
0
0
0
0
0
0
0
0
0
0
0
0
0
0
0
0
0
0
0
0
0
0
0
0
0
0
0
0
0
0
0
1
1
0
0
0
0
0
0
0
0
0
0
0
0
0
0
0
0
0
0
0
0
0
1
1
0
0
0
0
0
0
0
0
0
0
0
0
0
0
0
0
0
0
0
0
0
0
0
0
0
0
0
0
0
0
0
0
0
0
1
1
0
0
0
0
0
0
0
0
0
0
0
0
0
0
0
0
0
0
0
0
0
0
0
0
0
0
0
0
0
0
0
0
0
0
0
0
0
0
0
0
0
0
0
0
0
0
0
0
0
0
0
0
0
0
0
0
0
1
1
0
0
0
0
0
0
0
0
0
0
0
0
0
0
0
0
0
0
0
0
0
0
0
0
0
0
0
0
0
0
0
0
0
0
0
0
0
0
0
0
0
0
0
0
0
0
0
0
0
0
0
0
0
0
0
0
0
1
1
0
0
0
0
0
0
0
0
0
0
0
0
0
0
0
0
0
0
0
0
0
0
0
0
0
0
0
0
0
0
0
0
0
0
0
0
0
0
0
0
0
0
0
0
0
0
0
0
0
0
0
0
0
0
0
0
0
1
1
0
0
0
0
0
0
0
0
0
0
0
0
0
0
0
0
0
0
0
0
0
0
0
0
0
0
0
0
0
0
0
0
0
0
0
0
0
0
0
0
0
0
0
0
0
0
0
0
0
0
0
0
0
0
0
0
0
1
1
0
0
0
0
0
0
0
0
0
0
0
0
0
0
0
0
0
0
0
0
0
0
0
0
0
0
0
0
0
0
0
0
0
0
0
0
0
0
0
0
0
0
0
0
0
0
0
0
0
0
0
0
0
0
0
0
0
1
1
0
0
0
0
0
0
0
0
0
0
0
0
0
0
0
0
0
0
0
0
0
0
0
0
0
0
0
0
0
0
0
0
0
0
0
0
0
0
0
0
0
0
0
0
0
0
0
0
0
0
0
0
0
0
0
0
0
1
1
0
0
0
0
0
0
0
0
0
0
0
0
0
0
0
0
0
0
0
0
0
0
0
0
0
0
0
0
0
0
0
0
0
0
0
0
0
0
0
0
0
0
0
0
0
0
0
0
0
0
0
0
0
0
0
0
0
1
1
0
0
0
0
0
0
0
0
0
0
0
0
0
0
0
0
0
0
0
0
0
0
0
0
0
0
0
0
0
0
0
0
0
0
0
0
0
0
0
0
0
0
0
0
0
0
0
0
0
0
0
0
0
0
0
0
0
1
1
0
0
0
0
0
0
0
0
0
0
0
0
0
0
0
0
0
0
0
0
0
0
0
0
0
0
0
0
0
0
0
0
0
0
0
0
0
0
0
0
0
0
0
0
0
0
0
0
0
0
0
0
0
0
0
0
0
1
1
0
0
0
0
0
0
0
0
0
0
0
0
0
0
0
0
0
0
0
0
0
0
0
0
0
0
0
0
0
0
0
0
0
0
0
0
0
0
0
0
0
0
0
0
0
0
0
0
0
0
0
0
0
0
0
0
0
1
1
0
0
0
0
0
0
0
0
0
0
0
0
0
0
0
0
0
0
0
0
0
1
1
0
0
0
0
0
0
0
0
0
0
0
0
0
0
0
0
0
0
0
0
0
0
0
0
0
0
0
0
0
0
0
0
0
0
1
1
0
0
0
0
0
0
0
0
0
0
0
0
0
0
0
0
0
0
0
0
1
1
0
0
0
0
0
0
0
0
0
0
0
0
0
0
0
0
0
0
0
0
0
0
0
0
0
0
0
0
0
0
0
0
0
1
1
0
0
0
0
0
0
0
0
0
0
0
0
0
0
0
0
0
0
0
0
1
1
0
0
0
0
0
0
0
0
0
0
0
0
0
0
0
0
0
0
0
0
0
0
0
0
0
0
0
0
0
0
0
0
0
1
1
0
0
0
0
0
0
0
0
0
0
0
0
0
0
0
0
0
0
0
0
1
1
0
0
0
0
0
0
0
0
0
0
0
0
0
0
0
0
0
0
0
0
0
0
0
0
0
0
0
0
0
0
0
0
0
1
1
0
0
0
0
0
0
0
0
0
0
0
0
0
0
0
0
0
0
0
0
1
1
0
0
0
0
0
0
0
0
0
0
0
0
0
0
0
0
0
0
0
0
0
0
0
0
0
0
0
0
0
0
0
0
0
1
1
0
0
0
0
0
0
0
0
0
0
0
0
0
0
0
0
0
0
0
0
1
1
0
0
0
0
0
0
0
0
0
0
0
0
0
0
0
0
0
0
0
0
0
0
0
0
0
0
0
0
0
0
0
0
0
1
1
0
0
0
0
0
0
0
0
0
0
0
0
0
0
0
0
0
0
0
0
1
1
0
0
0
0
0
0
0
0
0
0
0
0
0
0
0
0
0
0
0
0
0
0
0
0
0
0
0
0
0
0
0
0
0
1
1
0
0
0
0
0
0
0
0
0
0
0
0
0
0
0
0
0
0
0
0
1
1
0
0
0
0
0
0
0
0
0
0
0
0
0
0
0
0
0
0
0
0
0
0
0
0
0
0
0
0
0
0
0
0
0
1
1
0
0
0
0
0
0
0
0
0
0
0
0
0
0
0
0
0
0
0
0
1
1
0
0
0
0
0
0
0
0
0
0
0
0
0
0
0
0
0
0
0
0
0
0
0
0
0
0
0
0
0
0
0
0
0
1
1
0
0
0
0
0
0
0
0
0
0
0
0
0
0
0
0
0
0
0
0
1
1
0
0
0
0
0
0
0
0
0
0
0
0
0
0
0
0
0
0
0
0
0
0
0
0
0
0
0
0
0
0
0
0
0
1
1
0
0
0
0
0
0
0
0
0
0
0
0
0
0
0
0
0
0
0
0
1
1
0
0
0
0
0
0
0
0
0
0
0
0
0
0
0
0
0
0
0
0
0
0
0
0
0
0
0
0
0
0
0
0
0
1
1
0
0
0
0
0
0
0
0
0
0
0
0
0
0
0
0
0
0
0
0
1
1
0
0
0
0
0
0
0
0
0
0
0
0
0
0
0
0
0
0
0
0
0
0
0
0
0
0
0
0
0
0
0
0
0
1
1
0
0
0
0
0
0
0
0
0
0
0
0
0
0
0
0
0
0
0
0
1
1
0
0
0
0
0
0
0
0
0
0
0
0
0
0
0
0
0
0
0
0
0
0
0
0
0
0
0
0
0
0
0
0
0
1
1
0
0
0
0
0
0
0
0
0
0
0
0
0
0
0
0
0
0
0
0
1
1
0
0
0
0
0
0
0
0
0
0
0
0
0
0
0
0
0
0
0
0
0
0
0
0
0
0
0
0
0
0
0
0
0
1
1
0
0
0
0
0
0
0
0
0
0
0
0
0
0
0
0
0
0
0
0
1
1
0
0
0
0
0
0
0
0
0
0
0
0
0
0
0
0
0
0
0
0
0
0
0
0
0
0
0
0
0
0
0
0
0
1
1
0
0
0
0
0
0
0
0
0
0
0
0
0
0
0
0
0
0
0
0
1
1
0
0
0
0
0
0
0
0
0
0
0
0
0
0
0
0
0
0
0
0
0
0
0
0
0
0
0
0
0
0
0
0
0
1
1
0
0
0
0
0
0
0
0
0
0
0
0
0
0
0
0
0
0
0
0
1
1
0
0
0
0
0
0
0
0
0
0
0
0
0
0
0
0
0
0
0
0
0
0
0
0
0
0
0
0
0
0
0
0
0
1
1
0
0
0
0
0
0
0
0
0
0
0
0
0
0
0
0
0
0
0
0
1
1
0
0
0
0
0
0
0
0
0
0
0
0
0
0
0
0
0
0
0
0
0
0
0
0
0
0
0
0
0
0
0
0
0
1
1
0
0
0
0
0
0
0
0
0
0
0
0
0
0
0
0
0
0
0
0
1
1
0
0
0
0
0
0
0
0
0
0
0
0
0
0
0
0
0
0
0
0
0
0
0
0
0
0
0
0
0
0
0
0
0
1
1
0
0
0
0
0
0
0
0
0
0
0
0
0
0
0
0
0
0
0
0
1
1
0
0
0
0
0
0
0
0
0
0
0
0
0
0
0
0
0
0
0
0
0
0
0
0
0
0
0
0
0
0
0
0
0
1
1
0
0
0
0
0
0
0
0
0
0
0
0
0
0
0
0
0
0
0
0
1
1
0
0
0
0
0
0
0
0
0
0
0
0
0
0
0
0
0
0
0
0
0
0
0
0
0
0
0
0
0
0
0
0
0
1
1
0
0
0
0
0
0
0
0
0
0
0
0
0
0
0
0
0
0
0
0
1
1
0
0
0
0
0
0
0
0
0
0
0
0
0
0
0
0
0
0
0
0
0
0
0
0
0
0
0
0
0
0
0
0
0
1
1
1
1
1
1
1
1
1
1
1
1
1
1
1
1
1
1
1
1
1
1
1
1
1
1
1
1
1
1
1
1
1
1
1
1
1
1
1
1
1
1
1
1
1
1
1
1
1
1
1
1
1
1
1
1
1
1
				</DataArray>
				<DataArray type="Float64" Name="h" NumberOfComponents="1" Format="ascii">
1.3094604046
1.3094865371
1.3091817341
1.3085522944
1.3075616719
1.3061632075
1.3043089473
1.3019595767
1.2990947313
1.2957219775
1.2918828966
1.2876557028
1.2831541839
1.2785225602
1.2739271319
1.2695463556
1.2655596881
1.2621363197
1.2594253704
1.2575472494
1.2565863985
1.2565863985
1.1398440122
1.1391800462
1.1393613146
1.1397056234
1.1401819369
1.1407528769
1.1413808535
1.1420326964
1.1426808144
1.1433034438
1.1438850706
1.1444154723
1.1448897909
1.1453100133
1.1456860741
1.1460388836
1.1464055260
1.1468450933
1.1474469234
1.1483404121
1.1497034573
1.1517677116
1.1548148545
1.1591558594
1.1650855845
1.1728078606
1.1823395230
1.1934185430
1.2054597635
1.2176002727
1.2288329851
1.2381828317
1.2448579218
1.2483259892
1.2483259892
1.3094865371
1.3094246114
1.3090799119
1.3083709985
1.3072622454
1.3057088887
1.3036661856
1.3010994648
1.2979941780
1.2943644171
1.2902584467
1.2857608241
1.2809911816
1.2760991853
1.2712564476
1.2666469685
1.2624561160
1.2588592560
1.2560115989
1.2540389200
1.2530296975
1.2565863985
1.1391800462
1.1384982146
1.1386846437
1.1390391714
1.1395305204
1.1401209242
1.1407722772
1.1414508259
1.1421284272
1.1427829084
1.1433986357
1.1439657544
1.1444805303
1.1449472141
1.1453796576
1.1458049915
1.1462695920
1.1468456971
1.1476402243
1.1488045722
1.1505418716
1.1531089353
1.1568061415
1.1619468207
1.1687993977
1.1775018560
1.1879653804
1.1998008087
1.2123130561
1.2245918187
1.2356717087
1.2446984981
1.2510375827
1.2542970634
1.2483259892
1.3093025202
1.3092298943
1.3088843518
1.3081747232
1.3070671971
1.3055194055
1.3034892158
1.3009443525
1.2978719995
1.2942869372
1.2902368418
1.2858043590
1.2811060580
1.2762877688
1.2715170024
1.2669739310
1.2628408285
1.2592909794
1.2564785563
1.2545291222
1.2535313914
1.2570416793
1.1389083313
1.1382220267
1.1384155758
1.1387833184
1.1392923472
1.1399031784
1.1405762300
1.1412766325
1.1419754773
1.1426501296
1.1432847805
1.1438697122
1.1444017150
1.1448860784
1.1453383560
1.1457881943
1.1462853924
1.1469064405
1.1477629148
1.1490102394
1.1508529780
1.1535436565
1.1573685653
1.1626134295
1.1695050034
1.1781321196
1.1883653009
1.1998044470
1.2117878925
1.2234783815
1.2339984461
1.2425668408
1.2485906580
1.2516920020
1.2455982647
1.3089521795
1.3088565153
1.3085095471
1.3077989228
1.3066942999
1.3051578885
1.3031525441
1.3006505741
1.2976424883
1.2941444160
1.2902029623
1.2858971843
1.2813378544
1.2766634924
1.2720337229
1.2676212656
1.2636022548
1.2601457101
1.2574035230
1.2555005927
1.2545259068
1.2579446416
1.1383527150
1.1376580989
1.1378659897
1.1382603248
1.1388048938
1.1394567585
1.1401733886
1.1409176968
1.1416592601
1.1423745294
1.1430473508
1.1436682779
1.1442351392
1.1447552792
1.1452476096
1.1457467228
1.1463091038
1.1470194572
1.1479981756
1.1494079322
1.1514550158
1.1543820625
1.1584463094
1.1638791169
1.1708281744
1.1792925563
1.1890720944
1.1997515300
1.2107324020
1.2213090926
1.2307625649
1.2384473992
1.2438552297
1.2466441658
1.2403530870
1.3084703437
1.3083363701
1.3079878481
1.3072766988
1.3061774076
1.3046585530
1.3026899321
1.3002502437
1.2973346696
1.2939613034
1.2901753922
1.2860511576
1.2816914428
1.2772246416
1.2727992888
1.2685774052
1.2647260414
1.2614075964
1.2587700710
1.2569368224
1.2559967925
1.2592814030
1.1374880740
1.1367827713
1.1370124023
1.1374469800
1.1380452342
1.1387590014
1.1395413430
1.1403518876
1.1411579818
1.1419347347
1.1426654883
1.1433412007
1.1439612339
1.1445359584
1.1450892098
1.1456627816
1.1463227829
1.1471655129
1.1483233512
1.1499679024
1.1523053551
1.1555605602
1.1599455188
1.1656126736
1.1726016377
1.1807964495
1.1899141000
1.1995305209
1.2091340286
1.2181860932
1.2261682381
1.2326152092
1.2371442262
1.2394808781
1.2330006552
1.3079070215
1.3077158381
1.3073661550
1.3066557871
1.3055650206
1.3040700855
1.3021491277
1.2997885654
1.2969892896
1.2937719260
1.2901803387
1.2862832232
1.2821741323
1.2779693680
1.2738039299
1.2698264043
1.2661919809
1.2630538990
1.2605542256
1.2588133794
1.2579195049
1.2610312375
1.1362758863
1.1355600944
1.1358191070
1.1363079316
1.1369783504
1.1377751530
1.1386455565
1.1395448911
1.1404376090
1.1412970873
1.1421060279
1.1428559314
1.1435481701
1.1441970512
1.1448327666
1.1455063034
1.1462958435
1.1473117980
1.1487002818
1.1506413751
1.1533365871
1.1569824594
1.1617289291
1.1676292513
1.1745978401
1.1823973859
1.1906696975
1.1989985466
1.2069754083
1.2142405669
1.2204882203
1.2254542353
1.2289129307
1.2306907565
1.2241240071
1.3073247506
1.3070539181
1.3067039166
1.3059963100
1.3049177404
1.3034528247
1.3015888811
1.2993208683
1.2966561058
1.2936182820
1.2902501407
1.2866147581
1.2827958611
1.2788966066
1.2750368450
1.2713495825
1.2679756081
1.2650563371
1.2627254642
1.2610985834
1.2602618892
1.2631670595
1.1346633967
1.1339412917
1.1342376127
1.1347950644
1.1355564107
1.1364575127
1.1374383447
1.1384489986
1.1394504375
1.1404139686
1.1413215543
1.1421653958
1.1429493408
1.1436924779
1.1444326185
1.1452315871
1.1461814415
1.1474081087
1.1490714169
1.1513569674
1.1544541042
1.1585183896
1.1636217774
1.1697048777
1.1765539144
1.1838227886
1.1911024496
1.1980079137
1.2042434427
1.2096216569
1.2140373530
1.2174244793
1.2197272159
1.2208949674
1.2144223095
1.3067951630
1.3064195930
1.3060703863
1.3053678486
1.3043051362
1.3028754747
1.3010756361
1.2989094747
1.2963911710
1.2935479798
1.2904220577
1.2870713208
1.2835698995
1.2800076105
1.2764883471
1.2731279992
1.2700507258
1.2673834406
1.2652487697
1.2637552586
1.2629857433
1.2656569932
1.1325825546
1.1318638878
1.1322057297
1.1328464886
1.1337176095
1.1347440901
1.1358573336
1.1370013566
1.1381331243
1.1392216011
1.1402479606
1.1412052993
1.1421004106
1.1429579446
1.1438244008
1.1447736680
1.1459127067
1.1473830615
1.1493562916
1.1520180276
1.1555354932
1.1600097603
1.1654220399
1.1715959613
1.1782010203
1.1848102719
1.1909984018
1.1964368689
1.2009466101
1.2044951923
1.2071503186
1.2090200806
1.2102069099
1.2107829099
1.2046234881
1.3063942362
1.3058877347
1.3055404616
1.3048451723
1.3038013682
1.3024106806
1.3006791735
1.2986195715
1.2962531144
1.2936110999
1.2907358414
1.2876809941
1.2845119405
1.2813056786
1.2781500426
1.2751428560
1.2723897961
1.2700007364
1.2680845012
1.2667402864
1.2660461707
1.2684636599
1.1299498371
1.1292514100
1.1296472792
1.1303862356
1.1313858219
1.1325582066
1.1338250104
1.1351234690
1.1364061393
1.1376394372
1.1388037588
1.1398933441
1.1409184299
1.1419099613
1.1429239980
1.1440472670
1.1454018139
1.1471435313
1.1494517983
1.1525046119
1.1564356804
1.1612791393
1.1669182179
1.1730656337
1.1792981823
1.1851456260
1.1902039079
1.1942231553
1.1971397003
1.1990531000
1.2001677795
1.2007265533
1.2009556137
1.2010251850
1.1953879408
1.3061973347
1.3055345526
1.3051901357
1.3045037133
1.3034807253
1.3021307009
1.3004685130
1.2985154535
1.2962998365
1.2938574361
1.2912315848
1.2884728588
1.2856391679
1.2827957384
1.2800148079
1.2773757143
1.2749642334
1.2728709654
1.2711884245
1.2700044165
1.2693912376
1.2715438004
1.1266668976
1.1260135248
1.1264722361
1.1273243707
1.1284706602
1.1298085097
1.1312487369
1.1327212647
1.1341739328
1.1355704637
1.1368905429
1.1381298668
1.1393026638
1.1404468895
1.1416288647
1.1429484921
1.1445422626
1.1465778638
1.1492369605
1.1526808473
1.1569983564
1.1621473869
1.1679132215
1.1739138004
1.1796659726
1.1846967221
1.1886570940
1.1913913151
1.1929442540
1.1935211506
1.1934228933
1.1929789145
1.1924904365
1.1921852946
1.1872274598
1.3062745137
1.3054329136
1.3050918831
1.3044150834
1.3034133429
1.3021033954
1.3005082392
1.2986572436
1.2965856683
1.2943341196
1.2919478215
1.2894755632
1.2869692763
1.2844837855
1.2820766013
1.2798086142
1.2777447448
1.2759545407
1.2745121811
1.2734926651
1.2729622915
1.2748484639
1.1226223480
1.1220468447
1.1225775152
1.1235576882
1.1248680488
1.1263894815
1.1280213098
1.1296858464
1.1313260078
1.1329027107
1.1343950254
1.1358004705
1.1371378738
1.1384529310
1.1398228045
1.1413605508
1.1432157767
1.1455644023
1.1485837888
1.1524091250
1.1570746596
1.1624575899
1.1682530643
1.1740082723
1.1792164580
1.1834389642
1.1864070785
1.1880651125
1.1885531620
1.1881530274
1.1872209376
1.1861239605
1.1851878515
1.1846553296
1.1804600710
1.3066858208
1.3056473213
1.3053097189
1.3046422862
1.3036606263
1.3023878966
1.3008544328
1.2990970745
1.2971577749
1.2950822091
1.2929182674
1.2907141955
1.2885174707
1.2863740233
1.2843277661
1.2824215614
1.2806990007
1.2792073644
1.2780011704
1.2771421649
1.2766917393
1.2783205018
1.1176959834
1.1172375461
1.1178496796
1.1189724905
1.1204631029
1.1221845481
1.1240244941
1.1258976574
1.1277419111
1.1295152256
1.1311961149
1.1327842890
1.1343038276
1.1358089328
1.1373881417
1.1391674204
1.1413077146
1.1439890365
1.1473775546
1.1515737653
1.1565506227
1.1621057394
1.1678586138
1.1733138729
1.1779755684
1.1814680462
1.1836162343
1.1844600170
1.1842150150
1.1832088960
1.1818150781
1.1803962091
1.1792616174
1.1786356717
1.1752111360
1.3074776063
1.3062296369
1.3058950040
1.3052356782
1.3042714125
1.3030309844
1.3015512360
1.2998757947
1.2980529366
1.2961334823
1.2941685779
1.2922069912
1.2902931479
1.2884655784
1.2867558656
1.2851895721
1.2837889573
1.2825784363
1.2815923658
1.2808800398
1.2805008694
1.2818920102
1.1117664850
1.1114669498
1.1121706492
1.1134503735
1.1151360438
1.1170723455
1.1191359526
1.1212343995
1.1233004269
1.1252887698
1.1271772701
1.1289680865
1.1306911724
1.1324100291
1.1342251190
1.1362750116
1.1387300654
1.1417701690
1.1455438668
1.1501101264
1.1553775542
1.1610703601
1.1667509675
1.1719092785
1.1760878132
1.1789909572
1.1805382930
1.1808514520
1.1801976782
1.1789213933
1.1773825169
1.1759099236
1.1747712690
1.1741540215
1.1714480216
1.3086801867
1.3072159367
1.3068833649
1.3062299974
1.3052791283
1.3040643631
1.3026282067
1.3010203339
1.2992948541
1.2975076220
1.2957133858
1.2939622397
1.2922967376
1.2907493872
1.2893407588
1.2880800892
1.2869687350
1.2860082346
1.2852130966
1.2846223504
1.2842987492
1.2854826233
1.1047222024
1.1046199981
1.1054263654
1.1068769578
1.1087710791
1.1109360991
1.1132395889
1.1155827874
1.1178931039
1.1201213563
1.1222441582
1.1242660224
1.1262231974
1.1281892176
1.1302770559
1.1326376534
1.1354489802
1.1388869491
1.1430770692
1.1480321397
1.1535967779
1.1594313488
1.1650604636
1.1699826253
1.1737967068
1.1762920918
1.1774736989
1.1775253459
1.1767419543
1.1754612664
1.1740098625
1.1726680942
1.1716524732
1.1711084938
1.1690302195
1.3103058412
1.3086237290
1.3082919271
1.3076416185
1.3066990537
1.3055018929
1.3040974557
1.3025406729
1.3008908777
1.2992086512
1.2975524254
1.2959741280
1.2945153488
1.2932037775
1.2920502804
1.2910489342
1.2901809839
1.2894255420
1.2887782108
1.2882712811
1.2879791772
1.2889956742
1.0964742251
1.0965963180
1.0975184963
1.0991542096
1.1012695730
1.1036781558
1.1062419904
1.1088573187
1.1114455624
1.1139520869
1.1163508140
1.1186477706
1.1208854363
1.1231478952
1.1255612163
1.1282886360
1.1315142555
1.1354067997
1.1400645916
1.1454516918
1.1513514890
1.1573711570
1.1630142947
1.1678042211
1.1714038325
1.1736826771
1.1747156088
1.1747282385
1.1740235590
1.1729177693
1.1716956932
1.1705869267
1.1697589942
1.1693192364
1.1677603633
1.3123474824
1.3104499831
1.3101173390
1.3094665604
1.3085262872
1.3073374743
1.3059513995
1.3044274066
1.3028293309
1.3012219864
1.2996673194
1.2982193088
1.2969192150
1.2957909275
1.2948368829
1.2940373059
1.2933543792
1.2927454717
1.2921884416
1.2917133798
1.2914184024
1.2923150586
1.0869698621
1.0873231560
1.0883785470
1.0902156053
1.0925665763
1.0952385259
1.0980935379
1.1010241949
1.1039440968
1.1067899645
1.1095299410
1.1121694349
1.1147562618
1.1173851822
1.1201959113
1.1233641278
1.1270790303
1.1314997158
1.1366944025
1.1425774286
1.1488748563
1.1551504482
1.1608992896
1.1656782847
1.1692138789
1.1714452826
1.1725006958
1.1726305698
1.1721332968
1.1712975011
1.1703669806
1.1695264735
1.1689029237
1.1685733908
1.1674244345
1.3147782113
1.3126702329
1.3123348607
1.3116795419
1.3107347478
1.3095439715
1.3081615771
1.3066504304
1.3050780500
1.3035128338
1.3020198622
1.3006551384
1.2994599920
1.2984553654
1.2976365000
1.2969711681
1.2964036569
1.2958701566
1.2953314697
1.2948202718
1.2944748121
1.2953040199
1.0761996537
1.0767645503
1.0779791229
1.0800390252
1.0826457093
1.0856124746
1.0888090767
1.0921248314
1.0954612004
1.0987402015
1.1019185854
1.1049971882
1.1080272199
1.1111138573
1.1144111032
1.1181076292
1.1223973329
1.1274281411
1.1332364126
1.1396869073
1.1464524970
1.1530614666
1.1590084654
1.1638869439
1.1674817211
1.1697897696
1.1709785805
1.1713120480
1.1710782401
1.1705389379
1.1699030896
1.1693200679
1.1688864732
1.1686575698
1.1678184519
1.3175504915
1.3152376838
1.3148974588
1.3142330536
1.3132762146
1.3120722114
1.3106776050
1.3091578511
1.3075832578
1.3060250419
1.3045508813
1.3032185928
1.3020697941
1.3011232036
1.3003680589
1.2997611109
1.2992298572
1.2986893027
1.2980823883
1.2974479800
1.2969860115
1.2978014996
1.0641911881
1.0649203920
1.0663372443
1.0686533806
1.0715496284
1.0748654842
1.0784870820
1.0822978434
1.0861782294
1.0900251593
1.0937751453
1.0974186134
1.1010075284
1.1046573431
1.1085376043
1.1128514005
1.1177979498
1.1235136351
1.1300024513
1.1370806845
1.1443720972
1.1513756662
1.1575903935
1.1626459003
1.1663787652
1.1688333424
1.1702064634
1.1707694130
1.1707993015
1.1705355632
1.1701604460
1.1697977442
1.1695231282
1.1693773829
1.1687627942
1.3205954856
1.3180828537
1.3177354589
1.3170570369
1.3160800505
1.3148507790
1.3134270749
1.3118760216
1.3102697726
1.3086815207
1.3071809016
1.3058272105
1.3046624445
1.3037037172
1.3029353916
1.3023045694
1.3017227956
1.3010827734
1.3003058598
1.2994369856
1.2987645642
1.2996174840
1.0509876880
1.0518126384
1.0535080292
1.0561371049
1.0593839964
1.0631430561
1.0673237265
1.0717942107
1.0763978875
1.0809907762
1.0854773959
1.0898311917
1.0941029397
1.0984196175
1.1029691868
1.1079721896
1.1136353334
1.1200846083
1.1272925731
1.1350291518
1.1428731427
1.1502992229
1.1568136714
1.1620806514
1.1659824493
1.1686030042
1.1701623203
1.1709367652
1.1711945507
1.1711584123
1.1709916855
1.1708009139
1.1706483200
1.1705657812
1.1701067780
1.3238235191
1.3211146633
1.3207576620
1.3200600557
1.3190544691
1.3177874251
1.3163171581
1.3147114049
1.3130431936
1.3113868083
1.3098131417
1.3083825523
1.3071374095
1.3060937352
1.3052320251
1.3044909143
1.3037663228
1.3029258316
1.3018606778
1.3006134323
1.2995909199
1.3005259340
1.0366076640
1.0374524451
1.0395652212
1.0426060581
1.0463141831
1.0506756662
1.0556218725
1.0609842203
1.0665434868
1.0720944879
1.0774977899
1.0827056887
1.0877692083
1.0928313877
1.0981042662
1.1038311404
1.1102302429
1.1174199596
1.1253437412
1.1337281750
1.1421113561
1.1499479740
1.1567535913
1.1622251223
1.1662856931
1.1690533136
1.1707675341
1.1717094110
1.1721410726
1.1722737159
1.1722580739
1.1721897400
1.1721228965
1.1720844164
1.1717277054
1.3271250249
1.3242223126
1.3238532371
1.3231312254
1.3220885260
1.3207711581
1.3192368442
1.3175530104
1.3157925896
1.3140300568
1.3123368302
1.3107738575
1.3093837732
1.3081818625
1.3071455110
1.3062056596
1.3052421099
1.3040921726
1.3026012065
1.3007846730
1.2991919865
1.3002438999
1.0209768271
1.0217762896
1.0245650146
1.0281946347
1.0325668470
1.0377961312
1.0438131253
1.0503727372
1.0571597688
1.0638888672
1.0703711507
1.0765414389
1.0824593592
1.0882936675
1.0942895776
1.1007206638
1.1078222159
1.1157089292
1.1242983176
1.1332770652
1.1421466340
1.1503453631
1.1573994732
1.1630368875
1.1672176434
1.1700897437
1.1719099216
1.1729640768
1.1735106940
1.1737533966
1.1738348902
1.1738441989
1.1738311016
1.1738200260
1.1735260105
1.3303729496
1.3272787117
1.3268951246
1.3261435641
1.3250553957
1.3236754264
1.3220600121
1.3202753405
1.3183933072
1.3164876965
1.3146297286
1.3128804481
1.3112825749
1.3098508339
1.3085598788
1.3073330251
1.3060321749
1.3044561221
1.3023783374
1.2997319967
1.2971986458
1.2983900215
1.0037849429
1.0045024665
1.0084725073
1.0130365004
1.0184628315
1.0250005158
1.0325182249
1.0406395524
1.0489258209
1.0570088612
1.0646626258
1.0718225862
1.0785750520
1.0851296391
1.0917763716
1.0988274557
1.1065408119
1.1150311550
1.1241929371
1.1336758797
1.1429480811
1.1514341749
1.1586716271
1.1644174296
1.1686650068
1.1715889066
1.1734610539
1.1745721493
1.1751786595
1.1754793076
1.1756118097
1.1756614582
1.1756759246
1.1756787683
1.1754191448
1.3334282237
1.3301468320
1.3297462835
1.3289600216
1.3278180498
1.3263632834
1.3246498775
1.3227418655
1.3207091657
1.3186239958
1.3165566964
1.3145680192
1.3127007594
1.3109694676
1.3093465210
1.3077472899
1.3060125743
1.3038903400
1.3010417303
1.2972069117
1.2930662757
1.2944064428
0.9840215999
0.9846638711
0.9909631316
0.9972755812
1.0045562965
1.0131175531
1.0226840448
1.0327212421
1.0426849414
1.0521637440
1.0609372588
1.0689780179
1.0764258118
1.0835487231
1.0906922771
1.0982132942
1.1063953006
1.1153544909
1.1249633282
1.1348359819
1.1444089959
1.1530945664
1.1604409341
1.1662316912
1.1704900708
1.1734138278
1.1752880166
1.1764076508
1.1770279853
1.1773444381
1.1774915955
1.1775527387
1.1775747885
1.1775813408
1.1773367177
1.3361485127
1.3326889443
1.3322688192
1.3314423547
1.3302376675
1.3286950043
1.3268653087
1.3248092642
1.3225934759
1.3202872228
1.3179587796
1.3156678767
1.3134575280
1.3113436443
1.3092994419
1.3072364336
1.3049764960
1.3022071592
1.2984224977
1.2929582910
1.2859531892
1.2874396429
0.9580323894
0.9586666095
0.9710047592
0.9813930988
0.9921479519
1.0037365183
1.0158526715
1.0279391525
1.0394760672
1.0501142674
1.0597138017
1.0683312401
1.0761855242
1.0836143394
1.0910213791
1.0988064854
1.1072755673
1.1165431525
1.1264575539
1.1365965014
1.1463649763
1.1551624714
1.1625463626
1.1683236814
1.1725436152
1.1754237007
1.1772598973
1.1783506626
1.1789502415
1.1792515854
1.1793872089
1.1794393569
1.1794549426
1.1794580699
1.1792158366
1.3384015172
1.3347798172
1.3343373806
1.3334648975
1.3321878886
1.3305427957
1.3285756950
1.3263416341
1.3239008060
1.3213154444
1.3186465346
1.3159464239
1.3132513106
1.3105723849
1.3078821793
1.3050989774
1.3020623032
1.2984793469
1.2937931578
1.2868609925
1.2755663762
1.2771939069
0.9105675622
0.9113611024
0.9470354348
0.9680556189
0.9847983601
1.0000866951
1.0145416229
1.0280721117
1.0404501001
1.0515302299
1.0613184034
1.0699763216
1.0777995462
1.0851818645
1.0925684644
1.1003864794
1.1089513213
1.1183665564
1.1284505635
1.1387416802
1.1486119660
1.1574468687
1.1648104279
1.1705294519
1.1746750579
1.1774811542
1.1792523771
1.1802896154
1.1808460021
1.1811124350
1.1812199394
1.1812502502
1.1812506426
1.1812459367
1.1809984837
1.3400819385
1.3363229186
1.3358562737
1.3349336168
1.3335770910
1.3318179794
1.3296952925
1.3272549558
1.3245451614
1.3216119969
1.3184940751
1.3152106617
1.3117462320
1.3080270222
1.3038780468
1.2989503571
1.2925818793
1.2834996094
1.2691353470
1.2438736233
1.1941016248
1.0818556961
0.9158557540
0.9593437580
0.9813579967
0.9771862103
0.9845996306
0.9918868188
1.0012128599
1.0121660396
1.0238672213
1.0355061242
1.0465011885
1.0565251160
1.0654851077
1.0734873072
1.0807967168
1.0877909557
1.0949079817
1.1025697231
1.1110801621
1.1205194432
1.1306697067
1.1410276016
1.1509316973
1.1597525317
1.1670585543
1.1726928616
1.1767447460
1.1794614205
1.1811542574
1.1821257078
1.1826276740
1.1828492598
1.1829203521
1.1829224583
1.1829033722
1.1828886855
1.1826319702
1.3411236267
1.3372612397
1.3367712526
1.3358001126
1.3343664945
1.3324963788
1.3302215275
1.3275785980
1.3246038885
1.3213282271
1.3177707587
1.3139252710
1.3097426573
1.3051055626
1.2997834479
1.2933627523
1.2851273732
1.2738280125
1.2572177341
1.2310187323
1.1864706248
1.1051702161
0.9135018350
0.9576265457
0.9714422407
0.9767626894
0.9868512504
0.9969316419
1.0077314509
1.0191304045
1.0306504111
1.0417753839
1.0521113175
1.0614438648
1.0697487611
1.0771669348
1.0839807093
1.0905760973
1.0973958311
1.1048623754
1.1132717299
1.1226840290
1.1328495165
1.1432280649
1.1531288211
1.1619092616
1.1691414883
1.1746822866
1.1786360376
1.1812607697
1.1828731115
1.1837765063
1.1842216412
1.1843960753
1.1844288057
1.1844012570
1.1843617675
1.1843366570
1.1840690791
1.3414965027
1.3375727979
1.3370637043
1.3360528140
1.3345558675
1.3325944162
1.3301942976
1.3273848727
1.3241935524
1.3206405941
1.3167331164
1.3124514322
1.3077322850
1.3024459550
1.2963557264
1.2890588334
1.2798925045
1.2677614398
1.2508205817
1.2258403219
1.1868819250
1.1244557612
0.9995061316
0.9970260283
0.9929726760
0.9920837131
0.9975870156
1.0058139455
1.0157190120
1.0264664246
1.0373423728
1.0477900271
1.0574389662
1.0661089838
1.0737965282
1.0806652300
1.0870118066
1.0932274382
1.0997575180
1.1070240234
1.1153155896
1.1246751139
1.1348258625
1.1451968893
1.1550728721
1.1638005290
1.1709549878
1.1764041730
1.1802646031
1.1828028671
1.1843396223
1.1851789255
1.1855703580
1.1857001775
1.1856966602
1.1856411846
1.1855825524
1.1855476883
1.1852692074
1.3411962359
1.3372590684
1.3367376759
1.3357010479
1.3341627763
1.3321412181
1.3296580380
1.3267376610
1.3234017985
1.3196644355
1.3155264353
1.3109624467
1.3059055394
1.3002272469
1.2937015613
1.2859550275
1.2763916802
1.2640591272
1.2474210358
1.2239446172
1.1893301830
1.1379239898
1.0496188748
1.0261875151
1.0119627348
1.0061373102
1.0080201817
1.0143184974
1.0231154938
1.0330755709
1.0432677278
1.0530664804
1.0620946080
1.0701836373
1.0773425555
1.0837392066
1.0896821461
1.0955674629
1.1018412626
1.1089241433
1.1170982910
1.1263927219
1.1365094907
1.1468536882
1.1566911282
1.1653603509
1.1724389101
1.1778033067
1.1815793169
1.1840400043
1.1855090231
1.1862908252
1.1866340823
1.1867239996
1.1866882447
1.1866081008
1.1865326642
1.1864892729
1.1862006769
1.3402374777
1.3363372007
1.3358116342
1.3347659261
1.3332123035
1.3311671226
1.3286494865
1.3256808937
1.3222798265
1.3184569579
1.3142102855
1.3095125958
1.3042972556
1.2984404733
1.2917285262
1.2838139493
1.2741523412
1.2618914606
1.2456949883
1.2234520138
1.1918000202
1.1468948795
1.0782669043
1.0459069753
1.0260491043
1.0168063880
1.0161745380
1.0209799230
1.0288682038
1.0381868227
1.0478442179
1.0571532994
1.0657221925
1.0733846940
1.0801553076
1.0862063154
1.0918478816
1.0974829412
1.1035578087
1.1104918891
1.1185627588
1.1277898173
1.1378606082
1.1481639716
1.1579530732
1.1665611670
1.1735677562
1.1788554449
1.1825565369
1.1849486904
1.1863577431
1.1870885035
1.1873890458
1.1874438141
1.1873799645
1.1872785854
1.1871888408
1.1871382411
1.1868404985
1.3386532045
1.3348388616
1.3343175202
1.3332799004
1.3317375590
1.3297058832
1.3272027553
1.3242483102
1.3208595705
1.3170457741
1.3128037997
1.3081059477
1.3028863570
1.2970244486
1.2903138425
1.2824216223
1.2728309576
1.2607411516
1.2449152163
1.2234449340
1.1934067587
1.1517087042
1.0920045396
1.0565220176
1.0342694495
1.0233442204
1.0214167468
1.0253792882
1.0327131196
1.0416245748
1.0509432154
1.0599479869
1.0682362583
1.0756403618
1.0821758947
1.0880166049
1.0934718293
1.0989476409
1.1048901624
1.1117176898
1.1197050266
1.1288663655