<VTKFile type="UnstructuredGrid" version="0.1">
	<UnstructuredGrid>
		<Piece NumberOfPoints="13548" NumberOfCells="3387">
			<CellData>
				<DataArray type="Int32" Name="ghost" NumberOfComponents="1" Format="ascii">
1
1
1
1
1
1
1
1
1
1
1
1
1
1
1
1
1
1
1
1
1
1
1
1
1
1
1
1
1
1
1
1
1
1
1
1
1
1
1
1
1
1
1
1
1
1
1
1
1
1
1
1
1
1
1
1
1
1
0
0
0
0
0
0
0
0
0
0
0
0
0
0
0
0
0
0
0
0
1
1
0
0
0
0
0
0
0
0
0
0
0
0
0
0
0
0
0
0
0
0
0
0
0
0
0
0
0
0
0
0
0
0
0
1
1
0
0
0
0
0
0
0
0
0
0
0
0
0
0
0
0
0
0
0
0
1
1
0
0
0
0
0
0
0
0
0
0
0
0
0
0
0
0
0
0
0
0
0
0
0
0
0
0
0
0
0
0
0
0
0
1
1
0
0
0
0
0
0
0
0
0
0
0
0
0
0
0
0
0
0
0
0
1
1
0
0
0
0
0
0
0
0
0
0
0
0
0
0
0
0
0
0
0
0
0
0
0
0
0
0
0
0
0
0
0
0
0
1
1
0
0
0
0
0
0
0
0
0
0
0
0
0
0
0
0
0
0
0
0
1
1
0
0
0
0
0
0
0
0
0
0
0
0
0
0
0
0
0
0
0
0
0
0
0
0
0
0
0
0
0
0
0
0
0
1
1
0
0
0
0
0
0
0
0
0
0
0
0
0
0
0
0
0
0
0
0
1
1
0
0
0
0
0
0
0
0
0
0
0
0
0
0
0
0
0
0
0
0
0
0
0
0
0
0
0
0
0
0
0
0
0
1
1
0
0
0
0
0
0
0
0
0
0
0
0
0
0
0
0
0
0
0
0
1
1
0
0
0
0
0
0
0
0
0
0
0
0
0
0
0
0
0
0
0
0
0
0
0
0
0
0
0
0
0
0
0
0
0
1
1
0
0
0
0
0
0
0
0
0
0
0
0
0
0
0
0
0
0
0
0
1
1
0
0
0
0
0
0
0
0
0
0
0
0
0
0
0
0
0
0
0
0
0
0
0
0
0
0
0
0
0
0
0
0
0
1
1
0
0
0
0
0
0
0
0
0
0
0
0
0
0
0
0
0
0
0
0
1
1
0
0
0
0
0
0
0
0
0
0
0
0
0
0
0
0
0
0
0
0
0
0
0
0
0
0
0
0
0
0
0
0
0
1
1
0
0
0
0
0
0
0
0
0
0
0
0
0
0
0
0
0
0
0
0
1
1
0
0
0
0
0
0
0
0
0
0
0
0
0
0
0
0
0
0
0
0
0
0
0
0
0
0
0
0
0
0
0
0
0
1
1
0
0
0
0
0
0
0
0
0
0
0
0
0
0
0
0
0
0
0
0
1
1
0
0
0
0
0
0
0
0
0
0
0
0
0
0
0
0
0
0
0
0
0
0
0
0
0
0
0
0
0
0
0
0
0
1
1
0
0
0
0
0
0
0
0
0
0
0
0
0
0
0
0
0
0
0
0
1
1
0
0
0
0
0
0
0
0
0
0
0
0
0
0
0
0
0
0
0
0
0
0
0
0
0
0
0
0
0
0
0
0
0
1
1
0
0
0
0
0
0
0
0
0
0
0
0
0
0
0
0
0
0
0
0
1
1
0
0
0
0
0
0
0
0
0
0
0
0
0
0
0
0
0
0
0
0
0
0
0
0
0
0
0
0
0
0
0
0
0
1
1
0
0
0
0
0
0
0
0
0
0
0
0
0
0
0
0
0
0
0
0
1
1
0
0
0
0
0
0
0
0
0
0
0
0
0
0
0
0
0
0
0
0
0
0
0
0
0
0
0
0
0
0
0
0
0
1
1
0
0
0
0
0
0
0
0
0
0
0
0
0
0
0
0
0
0
0
0
1
1
0
0
0
0
0
0
0
0
0
0
0
0
0
0
0
0
0
0
0
0
0
0
0
0
0
0
0
0
0
0
0
0
0
1
1
0
0
0
0
0
0
0
0
0
0
0
0
0
0
0
0
0
0
0
0
1
1
0
0
0
0
0
0
0
0
0
0
0
0
0
0
0
0
0
0
0
0
0
0
0
0
0
0
0
0
0
0
0
0
0
1
1
0
0
0
0
0
0
0
0
0
0
0
0
0
0
0
0
0
0
0
0
1
1
0
0
0
0
0
0
0
0
0
0
0
0
0
0
0
0
0
0
0
0
0
0
0
0
0
0
0
0
0
0
0
0
0
1
1
0
0
0
0
0
0
0
0
0
0
0
0
0
0
0
0
0
0
0
0
1
1
0
0
0
0
0
0
0
0
0
0
0
0
0
0
0
0
0
0
0
0
0
0
0
0
0
0
0
0
0
0
0
0
0
1
1
0
0
0
0
0
0
0
0
0
0
0
0
0
0
0
0
0
0
0
0
1
1
0
0
0
0
0
0
0
0
0
0
0
0
0
0
0
0
0
0
0
0
0
0
0
0
0
0
0
0
0
0
0
0
0
1
1
0
0
0
0
0
0
0
0
0
0
0
0
0
0
0
0
0
0
0
0
1
1
0
0
0
0
0
0
0
0
0
0
0
0
0
0
0
0
0
0
0
0
0
0
0
0
0
0
0
0
0
0
0
0
0
1
1
0
0
0
0
0
0
0
0
0
0
0
0
0
0
0
0
0
0
0
0
1
1
0
0
0
0
0
0
0
0
0
0
0
0
0
0
0
0
0
0
0
0
0
0
0
0
0
0
0
0
0
0
0
0
0
1
1
0
0
0
0
0
0
0
0
0
0
0
0
0
0
0
0
0
0
0
0
1
1
0
0
0
0
0
0
0
0
0
0
0
0
0
0
0
0
0
0
0
0
0
0
0
0
0
0
0
0
0
0
0
0
0
1
1
0
0
0
0
0
0
0
0
0
0
0
0
0
0
0
0
0
0
0
0
1
1
0
0
0
0
0
0
0
0
0
0
0
0
0
0
0
0
0
0
0
0
0
0
0
0
0
0
0
0
0
0
0
0
0
1
1
0
0
0
0
0
0
0
0
0
0
0
0
0
0
0
0
0
0
0
0
1
1
0
0
0
0
0
0
0
0
0
0
0
0
0
0
0
0
0
0
0
0
0
0
0
0
0
0
0
0
0
0
0
0
0
1
1
0
0
0
0
0
0
0
0
0
0
0
0
0
0
0
0
0
0
0
0
1
1
0
0
0
0
0
0
0
0
0
0
0
0
0
0
0
0
0
0
0
0
0
0
0
0
0
0
0
0
0
0
0
0
0
1
1
0
0
0
0
0
0
0
0
0
0
0
0
0
0
0
0
0
0
0
0
0
1
1
0
0
0
0
0
0
0
0
0
0
0
0
0
0
0
0
0
0
0
0
0
0
0
0
0
0
0
0
0
0
0
0
0
0
1
1
0
0
0
0
0
0
0
0
0
0
0
0
0
0
0
0
0
0
0
0
0
0
0
0
0
0
0
0
0
0
0
0
0
0
0
0
0
0
0
0
0
0
0
0
0
0
0
0
0
0
0
0
0
0
0
0
0
1
1
0
0
0
0
0
0
0
0
0
0
0
0
0
0
0
0
0
0
0
0
0
0
0
0
0
0
0
0
0
0
0
0
0
0
0
0
0
0
0
0
0
0
0
0
0
0
0
0
0
0
0
0
0
0
0
0
0
1
1
0
0
0
0
0
0
0
0
0
0
0
0
0
0
0
0
0
0
0
0
0
0
0
0
0
0
0
0
0
0
0
0
0
0
0
0
0
0
0
0
0
0
0
0
0
0
0
0
0
0
0
0
0
0
0
0
0
1
1
0
0
0
0
0
0
0
0
0
0
0
0
0
0
0
0
0
0
0
0
0
0
0
0
0
0
0
0
0
0
0
0
0
0
0
0
0
0
0
0
0
0
0
0
0
0
0
0
0
0
0
0
0
0
0
0
0
1
1
0
0
0
0
0
0
0
0
0
0
0
0
0
0
0
0
0
0
0
0
0
0
0
0
0
0
0
0
0
0
0
0
0
0
0
0
0
0
0
0
0
0
0
0
0
0
0
0
0
0
0
0
0
0
0
0
0
1
1
0
0
0
0
0
0
0
0
0
0
0
0
0
0
0
0
0
0
0
0
0
0
0
0
0
0
0
0
0
0
0
0
0
0
0
0
0
0
0
0
0
0
0
0
0
0
0
0
0
0
0
0
0
0
0
0
0
1
1
0
0
0
0
0
0
0
0
0
0
0
0
0
0
0
0
0
0
0
0
0
0
0
0
0
0
0
0
0
0
0
0
0
0
0
0
0
0
0
0
0
0
0
0
0
0
0
0
0
0
0
0
0
0
0
0
0
1
1
0
0
0
0
0
0
0
0
0
0
0
0
0
0
0
0
0
0
0
0
0
0
0
0
0
0
0
0
0
0
0
0
0
0
0
0
0
0
0
0
0
0
0
0
0
0
0
0
0
0
0
0
0
0
0
0
0
1
1
0
0
0
0
0
0
0
0
0
0
0
0
0
0
0
0
0
0
0
0
0
0
0
0
0
0
0
0
0
0
0
0
0
0
0
0
0
0
0
0
0
0
0
0
0
0
0
0
0
0
0
0
0
0
0
0
0
1
1
0
0
0
0
0
0
0
0
0
0
0
0
0
0
0
0
0
0
0
0
0
0
0
0
0
0
0
0
0
0
0
0
0
0
0
0
0
0
0
0
0
0
0
0
0
0
0
0
0
0
0
0
0
0
0
0
0
1
1
0
0
0
0
0
0
0
0
0
0
0
0
0
0
0
0
0
0
0
0
0
1
1
0
0
0
0
0
0
0
0
0
0
0
0
0
0
0
0
0
0
0
0
0
0
0
0
0
0
0
0
0
0
0
0
0
0
1
1
0
0
0
0
0
0
0
0
0
0
0
0
0
0
0
0
0
0
0
0
1
1
0
0
0
0
0
0
0
0
0
0
0
0
0
0
0
0
0
0
0
0
0
0
0
0
0
0
0
0
0
0
0
0
0
1
1
0
0
0
0
0
0
0
0
0
0
0
0
0
0
0
0
0
0
0
0
1
1
0
0
0
0
0
0
0
0
0
0
0
0
0
0
0
0
0
0
0
0
0
0
0
0
0
0
0
0
0
0
0
0
0
1
1
0
0
0
0
0
0
0
0
0
0
0
0
0
0
0
0
0
0
0
0
1
1
0
0
0
0
0
0
0
0
0
0
0
0
0
0
0
0
0
0
0
0
0
0
0
0
0
0
0
0
0
0
0
0
0
1
1
0
0
0
0
0
0
0
0
0
0
0
0
0
0
0
0
0
0
0
0
1
1
0
0
0
0
0
0
0
0
0
0
0
0
0
0
0
0
0
0
0
0
0
0
0
0
0
0
0
0
0
0
0
0
0
1
1
0
0
0
0
0
0
0
0
0
0
0
0
0
0
0
0
0
0
0
0
1
1
0
0
0
0
0
0
0
0
0
0
0
0
0
0
0
0
0
0
0
0
0
0
0
0
0
0
0
0
0
0
0
0
0
1
1
0
0
0
0
0
0
0
0
0
0
0
0
0
0
0
0
0
0
0
0
1
1
0
0
0
0
0
0
0
0
0
0
0
0
0
0
0
0
0
0
0
0
0
0
0
0
0
0
0
0
0
0
0
0
0
1
1
0
0
0
0
0
0
0
0
0
0
0
0
0
0
0
0
0
0
0
0
1
1
0
0
0
0
0
0
0
0
0
0
0
0
0
0
0
0
0
0
0
0
0
0
0
0
0
0
0
0
0
0
0
0
0
1
1
0
0
0
0
0
0
0
0
0
0
0
0
0
0
0
0
0
0
0
0
1
1
0
0
0
0
0
0
0
0
0
0
0
0
0
0
0
0
0
0
0
0
0
0
0
0
0
0
0
0
0
0
0
0
0
1
1
0
0
0
0
0
0
0
0
0
0
0
0
0
0
0
0
0
0
0
0
1
1
0
0
0
0
0
0
0
0
0
0
0
0
0
0
0
0
0
0
0
0
0
0
0
0
0
0
0
0
0
0
0
0
0
1
1
0
0
0
0
0
0
0
0
0
0
0
0
0
0
0
0
0
0
0
0
1
1
0
0
0
0
0
0
0
0
0
0
0
0
0
0
0
0
0
0
0
0
0
0
0
0
0
0
0
0
0
0
0
0
0
1
1
0
0
0
0
0
0
0
0
0
0
0
0
0
0
0
0
0
0
0
0
1
1
0
0
0
0
0
0
0
0
0
0
0
0
0
0
0
0
0
0
0
0
0
0
0
0
0
0
0
0
0
0
0
0
0
1
1
0
0
0
0
0
0
0
0
0
0
0
0
0
0
0
0
0
0
0
0
1
1
0
0
0
0
0
0
0
0
0
0
0
0
0
0
0
0
0
0
0
0
0
0
0
0
0
0
0
0
0
0
0
0
0
1
1
0
0
0
0
0
0
0
0
0
0
0
0
0
0
0
0
0
0
0
0
1
1
0
0
0
0
0
0
0
0
0
0
0
0
0
0
0
0
0
0
0
0
0
0
0
0
0
0
0
0
0
0
0
0
0
1
1
0
0
0
0
0
0
0
0
0
0
0
0
0
0
0
0
0
0
0
0
1
1
0
0
0
0
0
0
0
0
0
0
0
0
0
0
0
0
0
0
0
0
0
0
0
0
0
0
0
0
0
0
0
0
0
1
1
0
0
0
0
0
0
0
0
0
0
0
0
0
0
0
0
0
0
0
0
1
1
0
0
0
0
0
0
0
0
0
0
0
0
0
0
0
0
0
0
0
0
0
0
0
0
0
0
0
0
0
0
0
0
0
1
1
0
0
0
0
0
0
0
0
0
0
0
0
0
0
0
0
0
0
0
0
1
1
0
0
0
0
0
0
0
0
0
0
0
0
0
0
0
0
0
0
0
0
0
0
0
0
0
0
0
0
0
0
0
0
0
1
1
0
0
0
0
0
0
0
0
0
0
0
0
0
0
0
0
0
0
0
0
1
1
0
0
0
0
0
0
0
0
0
0
0
0
0
0
0
0
0
0
0
0
0
0
0
0
0
0
0
0
0
0
0
0
0
1
1
0
0
0
0
0
0
0
0
0
0
0
0
0
0
0
0
0
0
0
0
1
1
0
0
0
0
0
0
0
0
0
0
0
0
0
0
0
0
0
0
0
0
0
0
0
0
0
0
0
0
0
0
0
0
0
1
1
0
0
0
0
0
0
0
0
0
0
0
0
0
0
0
0
0
0
0
0
1
1
0
0
0
0
0
0
0
0
0
0
0
0
0
0
0
0
0
0
0
0
0
0
0
0
0
0
0
0
0
0
0
0
0
1
1
0
0
0
0
0
0
0
0
0
0
0
0
0
0
0
0
0
0
0
0
1
1
0
0
0
0
0
0
0
0
0
0
0
0
0
0
0
0
0
0
0
0
0
0
0
0
0
0
0
0
0
0
0
0
0
1
1
0
0
0
0
0
0
0
0
0
0
0
0
0
0
0
0
0
0
0
0
1
1
0
0
0
0
0
0
0
0
0
0
0
0
0
0
0
0
0
0
0
0
0
0
0
0
0
0
0
0
0
0
0
0
0
1
1
1
1
1
1
1
1
1
1
1
1
1
1
1
1
1
1
1
1
1
1
1
1
1
1
1
1
1
1
1
1
1
1
1
1
1
1
1
1
1
1
1
1
1
1
1
1
1
1
1
1
1
1
1
1
1
1
				</DataArray>
				<DataArray type="Float64" Name="h" NumberOfComponents="1" Format="ascii">
1.2397973943
1.2383567487
1.2389429793
1.2400914612
1.2417618852
1.2438962442
1.2464215397
1.2492535849
1.2523009311
1.2554689587
1.2586643589
1.2617990699
1.2647934183
1.2675787417
1.2700989892
1.2723109666
1.2741836338
1.2756967175
1.2768383723
1.2776024594
1.2779864149
1.2779864149
1.0926062506
1.0935376530
1.0949825487
1.0978565494
1.1021199167
1.1076964300
1.1144567878
1.1222061869
1.1306844110
1.1395796546
1.1485572547
1.1572985342
1.1655362982
1.1730801498
1.1798264345
1.1857508166
1.1908912527
1.1953265018
1.1991545801
1.2024766034
1.2053853822
1.2079587442
1.2102577972
1.2123270172
1.2141959715
1.2158825132
1.2173951865
1.2187356509
1.2199013701
1.2208870471
1.2216859960
1.2222917236
1.2226984571
1.2229017632
1.2229017632
1.2383567487
1.2369955260
1.2375871573
1.2387471003
1.2404352647
1.2425939310
1.2451504676
1.2480211138
1.2511148863
1.2543375539
1.2575959560
1.2608017548
1.2638743566
1.2667433852
1.2693501998
1.2716481671
1.2736021606
1.2751874741
1.2763878911
1.2771934550
1.2775987663
1.2779864149
1.0935376530
1.0947086724
1.0962385873
1.0992711804
1.1037433899
1.1095462362
1.1165114386
1.1244043616
1.1329312812
1.1417602255
1.1505542534
1.1590104163
1.1668907625
1.1740404044
1.1803899682
1.1859427409
1.1907551266
1.1949151488
1.1985226370
1.2016754059
1.2044600458
1.2069470398
1.2091902151
1.2112274676
1.2130827435
1.2147692212
1.2162915537
1.2176481056
1.2188334863
1.2198398756
1.2206583569
1.2212805298
1.2216990886
1.2219085145
1.2229017632
1.2382938171
1.2368961570
1.2374810534
1.2386278441
1.2402970795
1.2424319540
1.2449609676
1.2478016341
1.2508642993
1.2540560271
1.2572848317
1.2604633518
1.2635117218
1.2663600138
1.2689497549
1.2712342271
1.2731780166
1.2747559964
1.2759514761
1.2767540519
1.2771579766
1.2775635755
1.0936108686
1.0947987222
1.0963230135
1.0993432152
1.1037941785
1.1095650244
1.1164868753
1.1243266396
1.1327947135
1.1415652914
1.1503081741
1.1587260560
1.1665842567
1.1737283215
1.1800868196
1.1856593886
1.1904982136
1.1946873707
1.1983235360
1.2015023680
1.2043092700
1.2068143389
1.2090715975
1.2111194990
1.2129827128
1.2146751533
1.2162021180
1.2175624606
1.2187511010
1.2197603626
1.2205813363
1.2212055403
1.2216255501
1.2218357387
1.2228354012
1.2381611534
1.2366930357
1.2372647479
1.2383857902
1.2400179636
1.2421062482
1.2445813536
1.2473632827
1.2503649769
1.2534960322
1.2566667606
1.2597917156
1.2627924626
1.2655999609
1.2681560762
1.2704139368
1.2723375765
1.2739010524
1.2750867530
1.2758834021
1.2762845741
1.2767256858
1.0937499764
1.0949708359
1.0964842223
1.0994803971
1.1038901206
1.1095987834
1.1164363092
1.1241726139
1.1325260368
1.1411825982
1.1498250963
1.1581672256
1.1659808475
1.1731126256
1.1794874062
1.1850979170
1.1899881987
1.1942345898
1.1979274932
1.2011582071
1.2040096692
1.2065511021
1.2088368216
1.2109063136
1.2127856328
1.2144901269
1.2160263664
1.2173941873
1.2185891512
1.2196039012
1.2204295847
1.2210575981
1.2214803178
1.2216919286
1.2227037708
1.2379483516
1.2363803436
1.2369329741
1.2380167456
1.2395952648
1.2416160888
1.2440131146
1.2467099367
1.2496232429
1.2526662866
1.2557527050
1.2587998286
1.2617313071
1.2644794024
1.2669864916
1.2692055011
1.2710996823
1.2726419237
1.2738132880
1.2746012387
1.2749983686
1.2754913058
1.0939421772
1.0952109581
1.0967086286
1.0996702774
1.1040208245
1.1096403248
1.1163569329
1.1239447351
1.1321331744
1.1406248713
1.1491210591
1.1573513162
1.1650973309
1.1722080210
1.1786035307
1.1842671159
1.1892312797
1.1935611289
1.1973377470
1.2006457825
1.2035642594
1.2061608390
1.2084900401
1.2105926977
1.2124967965
1.2142197413
1.2157699727
1.2171488102
1.2183528279
1.2193752287
1.2202073415
1.2208404814
1.2212668172
1.2214803201
1.2225088032
1.2376416012
1.2359506357
1.2364790469
1.2375155040
1.2390258974
1.2409610411
1.2432588604
1.2458474886
1.2486483513
1.2515793331
1.2545582902
1.2575060899
1.2603490509
1.2630211209
1.2654653632
1.2676344834
1.2694907691
1.2710056466
1.2721585059
1.2729352143
1.2733271172
1.2738864464
1.0941687458
1.0954986912
1.0969765617
1.0998949039
1.1041713825
1.1096794021
1.1162448123
1.1236466264
1.1316276653
1.1399107280
1.1482197762
1.1563044381
1.1639594350
1.1710376008
1.1774543006
1.1831817252
1.1882382431
1.1926747286
1.1965600834
1.1999699574
1.2029778048
1.2056487663
1.2080372024
1.2101853821
1.2121235857
1.2138717846
1.2154408332
1.2168340374
1.2180494041
1.2190810186
1.2199206197
1.2205595892
1.2209899766
1.2212055886
1.2222532393
1.2372257710
1.2353964056
1.2358963633
1.2368772199
1.2383075353
1.2401419284
1.2423230299
1.2447842765
1.2474526340
1.2502514116
1.2531034224
1.2559337065
1.2586717551
1.2612535463
1.2636230057
1.2657326340
1.2675436315
1.2690257366
1.2701563907
1.2709195889
1.2713052074
1.2719433435
1.0944055543
1.0958079534
1.0972629389
1.1001314981
1.1043229982
1.1097031962
1.1160951235
1.1232830093
1.1310243083
1.1390641765
1.1471522032
1.1550612750
1.1626021068
1.1696335960
1.1760672435
1.1818637490
1.1870257817
1.1915876993
1.1956037092
1.1991381407
1.2022570254
1.2050217178
1.2074857234
1.2096925303
1.2116748465
1.2134555549
1.2150483840
1.2164591179
1.2176876612
1.2187293949
1.2195768114
1.2202216289
1.2206559776
1.2208736322
1.2219404257
1.2366869846
1.2347120688
1.2351803149
1.2360991829
1.2374401882
1.2391621605
1.2412129368
1.2435318249
1.2460519311
1.2487025901
1.2514121405
1.2541102999
1.2567301456
1.2592099885
1.2614947933
1.2635369075
1.2652963811
1.2667411131
1.2678463932
1.2685941313
1.2689725576
1.2696994607
1.0946238351
1.0961078568
1.0975381374
1.1003532850
1.1044537018
1.1096968091
1.1159023080
1.1228594436
1.1303405056
1.1381136939
1.1459555775
1.1536643401
1.1610691853
1.1680375477
1.1744789314
1.1803433784
1.1856175211
1.1903178602
1.1944819522
1.1981606599
1.2014106193
1.2042878390
1.2068439118
1.2091229726
1.2111599967
1.2129809162
1.2146026683
1.2160339660
1.2172771079
1.2183292627
1.2191841327
1.2198341633
1.2202718773
1.2204912351
1.2215739814
1.2360143537
1.2338950940
1.2343293481
1.2351817396
1.2364269249
1.2380282077
1.2399389569
1.2421047240
1.2444651550
1.2469560197
1.2495115838
1.2520666148
1.2545581017
1.2569269472
1.2591193320
1.2610875376
1.2627904603
1.2641940792
1.2652713976
1.2660020839
1.2663725834
1.2671956043
1.0947904071
1.0963630408
1.0977683534
1.1005298702
1.1045386979
1.1096434954
1.1156600801
1.1223820309
1.1295956525
1.1370913976
1.1446725681
1.1521633486
1.1594132151
1.1663006840
1.1727359079
1.1786603304
1.1840455599
1.1888900574
1.1932135623
1.1970517132
1.2004498050
1.2034567217
1.2061207401
1.2084856919
1.2105883139
1.2124574638
1.2141134564
1.2155683009
1.2168271792
1.2178895957
1.2187510077
1.2194050839
1.2198451494
1.2200656445
1.2211573686
1.2352015831
1.2329470943
1.2333460018
1.2341292251
1.2352746534
1.2367501925
1.2385149035
1.2405207707
1.2427141915
1.2450376019
1.2474314400
1.2498357737
1.2521917470
1.2544430739
1.2565373296
1.2584268501
1.2600694296
1.2614291075
1.2624765220
1.2631889828
1.2635510322
1.2644748700
1.0948677699
1.0965338486
1.0979158085
1.1006274640
1.1045505566
1.1095247339
1.1153612736
1.1218569493
1.1288103242
1.1360319462
1.1433500503
1.1506141134
1.1576947134
1.1644837479
1.1708951470
1.1768648698
1.1823518635
1.1873376941
1.1918241536
1.1958305406
1.1993891204
1.2025397903
1.2053258365
1.2077894789
1.2099683428
1.2118937725
1.2135894054
1.2150707840
1.2163464057
1.2174186649
1.2182853716
1.2189419841
1.2193831125
1.2196040285
1.2206933238
1.2342484882
1.2318749281
1.2322379665
1.2329509437
1.2339949869
1.2353426114
1.2369585834
1.2388013457
1.2408240929
1.2429760002
1.2452037873
1.2474529667
1.2496690111
1.2517986358
1.2537909935
1.2555986290
1.2571783327
1.2584922314
1.2595085513
1.2602021341
1.2605554879
1.2615822568
1.0948141174
1.0965764251
1.0979388791
1.1006090226
1.1044593017
1.1093201550
1.1149974923
1.1212897103
1.1280050675
1.1349708508
1.1420370421
1.1490763261
1.1559800853
1.1626553145
1.1690229744
1.1750174056
1.1805884495
1.1857033096
1.1903469475
1.1945221223
1.1982469043
1.2015505005
1.2044693650
1.2070425118
1.2093072324
1.2112965724
1.2130371487
1.2145480752
1.2158414818
1.2169231522
1.2177938413
1.2184513874
1.2188922028
1.2191127720
1.2201831206
1.2331610394
1.2306904457
1.2310178044
1.2316608330
1.2326038292
1.2338238212
1.2352911665
1.2369706540
1.2388221803
1.2408016022
1.2428619184
1.2449541464
1.2470282113
1.2490340043
1.2509224559
1.2526465110
1.2541620970
1.2554294848
1.2564144391
1.2570891827
1.2574339867
1.2585633944
1.0945822168
1.0964416633
1.0977911748
1.1004335153
1.1042318456
1.1090070728
1.1145586299
1.1206845537
1.1271995445
1.1339432605
1.1407831184
1.1476117084
1.1543397514
1.1608901816
1.1671939768
1.1731880852
1.1788177060
1.1840394848
1.1888240482
1.1931585693
1.1970465790
1.2005053300
1.2035626937
1.2062526603
1.2086106887
1.2106704035
1.2124607305
1.2140041197
1.2153164538
1.2164072827
1.2172808231
1.2179378473
1.2183770734
1.2185965737
1.2196256527
1.2319513699
1.2294103421
1.2297027949
1.2302772976
1.2311211889
1.2322158267
1.2335369411
1.2350554401
1.2367377131
1.2385461353
1.2404398964
1.2423755211
1.2443074844
1.2461890363
1.2479731224
1.2496133311
1.2510649154
1.2522863606
1.2532408767
1.2538977990
1.2542347869
1.2554643689
1.0941179193
1.0960737562
1.0974203122
1.1000549950
1.1038313463
1.1085600224
1.1140324778
1.1200439897
1.1264118253
1.1329828621
1.1396367876
1.1462818412
1.1528456280
1.1592668354
1.1654887499
1.1714551481
1.1771115295
1.1824087908
1.1873070721
1.1917802095
1.1958179209
1.1994249971
1.2026193522
1.2054281822
1.2078833532
1.2100176750
1.2118613788
1.2134396943
1.2147721034
1.2158720854
1.2167476885
1.2174030678
1.2178396679
1.2180574307
1.2190165285
1.2306378241
1.2280561416
1.2283149241
1.2288232065
1.2295711881
1.2305443022
1.2317233464
1.2330850281
1.2346019283
1.2362426961
1.2379725626
1.2397535291
1.2415447196
1.2433029653
1.2449835339
1.2465409864
1.2479301595
1.2491078375
1.2500344922
1.2506760753
1.2510069153
1.2523323122
1.0933584327
1.0954085310
1.0967666051
1.0994217551
1.1032167521
1.1079505388
1.1134045691
1.1193684952
1.1256577110
1.1321206616
1.1386434788
1.1451452748
1.1515674245
1.1578632277
1.1639896289
1.1699009843
1.1755481208
1.1808815387
1.1858558382
1.1904351626
1.1945972838
1.1983350421
1.2016557160
1.2045782496
1.2071291792
1.2093388183
1.2112374166
1.2128520895
1.2142054315
1.2153147275
1.2161919937
1.2168450301
1.2172782254
1.2174939858
1.2183471846
1.2292436560
1.2266528985
1.2268795960
1.2273246218
1.2279808151
1.2288373708
1.2298797777
1.2310901456
1.2324468714
1.2339245687
1.2354943188
1.2371235586
1.2387761922
1.2404129331
1.2419918011
1.2434688066
1.2447987602
1.2459368779
1.2468405868
1.2474715810
1.2477994950
1.2492147406
1.0922288375
1.0943700162
1.0957604228
1.0984747244
1.1023421706
1.1071472577
1.1126587864
1.1186573523
1.1249514192
1.1313852175
1.1378451706
1.1442562864
1.1505703405
1.1567535855
1.1627770089
1.1686084414
1.1742087285
1.1795333862
1.1845369953
1.1891788782
1.1934280541
1.1972669044
1.2006923890
1.2037143818
1.2063525985
1.2086331902
1.2105848425
1.2122353555
1.2136096012
1.2147281907
1.2156069359
1.2162572948
1.2166868875
1.2169004045
1.2176047240
1.2277961797
1.2252283977
1.2254248529
1.2258100604
1.2263792424
1.2271249909
1.2280370462
1.2291024550
1.2303049857
1.2316248504
1.2330387548
1.2345195345
1.2360360610
1.2375533573
1.2390328226
1.2404326478
1.2417082694
1.2428136310
1.2437027105
1.2443315023
1.2446624221
1.2461601892
1.0906379055
1.0928663066
1.0943195163
1.0971465452
1.1011573846
1.1061174379
1.1117795078
1.1179108814
1.1243073371
1.1308036024
1.1372804857
1.1436638817
1.1499127257
1.1560048556
1.1619247773
1.1676557032
1.1731726852
1.1784410313
1.1834208861
1.1880721579
1.1923597015
1.1962580686
1.1997550509
1.2028516640
1.2055599216
1.2079003221
1.2098984061
1.2115811531
1.2129745151
1.2141015952
1.2149814710
1.2156290086
1.2160549017
1.2162660869
1.2167716947
1.2263260991
1.2238125401
1.2239807860
1.2243099504
1.2247973509
1.2254385647
1.2262270837
1.2271543566
1.2282090084
1.2293764175
1.2306386469
1.2319738923
1.2333562472
1.2347556374
1.2361377596
1.2374641355
1.2386919809
1.2397747011
1.2406625011
1.2413035006
1.2416483374
1.2432201340
1.0884724566
1.0907840273
1.0923462580
1.0953617064
1.0996101307
1.1048305449
1.1107555433
1.1171340496
1.1237429398
1.1304026428
1.1369846305
1.1434102733
1.1496432449
1.1556724113
1.1614947670
1.1671098968
1.1725106758
1.1776758710
1.1825760668
1.1871771818
1.1914447916
1.1953498356
1.1988733684
1.2020084549
1.2047595621
1.2071406052
1.2091724498
1.2108796528
1.2122877393
1.2134210539
1.2143010419
1.2149453986
1.2153675247
1.2155762954
1.2158277227
1.2248657394
1.2224356322
1.2225778421
1.2228549738
1.2232661229
1.2238093942
1.2244814680
1.2252775844
1.2261906216
1.2272106034
1.2283246069
1.2295161140
1.2307647384
1.2320460876
1.2333314634
1.2345875230
1.2357753315
1.2368495070
1.2377568104
1.2384346501
1.2388139390
1.2404502094
1.0855866343
1.0879777296
1.0897229434
1.0930374384
1.0976507369
1.1032647782
1.1095871727
1.1163433267
1.1232840027
1.1302129851
1.1369912621
1.1435316729
1.1498003866
1.1557984860
1.1615344329
1.1670247294
1.1722828832
1.1773037543
1.1820671624
1.1865535246
1.1907347525
1.1945830114
1.1980766238
1.2012032944
1.2039602623
1.2063544493
1.2084009030
1.2101200850
1.2115353535
1.2126707701
1.2135488942
1.2141892682
1.2146074061
1.2148137007
1.2147521263
1.2234479190
1.2211273026
1.2212457624
1.2214750487
1.2218156905
1.2222678152
1.2228306601
1.2235025543
1.2242799116
1.2251567421
1.2261246517
1.2271722139
1.2282848172
1.2294446632
1.2306304140
1.2318166003
1.2329717754
1.2340556617
1.2350140121
1.2357710076
1.2362248501
1.2379149446
1.0817841599
1.0842523918
1.0863071838
1.0900886374
1.0952412364
1.1014190256
1.1082975783
1.1155746018
1.1229706573
1.1302726625
1.1373353443
1.1440591398
1.1504133452
1.1564133105
1.1620797625
1.1674386927
1.1725252618
1.1773538130
1.1819277382
1.1862385083
1.1902681353
1.1939946365
1.1973978840
1.2004623861
1.2031801709
1.2055517743
1.2075860075
1.2092982268
1.2107082214
1.2118381965
1.2127102951
1.2133445879
1.2137579063
1.2139617843
1.2135287198
1.2221047902
1.2199153928
1.2200124933
1.2201982851
1.2204743613
1.2208423219
1.2213032569
1.2218577754
1.2225049565
1.2232419351
1.2240641097
1.2249646719
1.2259347964
1.2269641214
1.2280407679
1.2291510182
1.2302769907
1.2313915213
1.2324472142
1.2333565539
1.2339667842
1.2356987993
1.0767846112
1.0793306112
1.0819272846
1.0864379246
1.0923674335
1.0993182398
1.1069433380
1.1148906113
1.1228616147
1.1306315061
1.1380529114
1.1450232547
1.1515049307
1.1575228208
1.1631173217
1.1683375192
1.1732318067
1.1778367013
1.1821752352
1.1862554879
1.1900730839
1.1936158352
1.1968676473
1.1998133824
1.2024422411
1.2047496802
1.2067386788
1.2084191246
1.2098062604
1.2109190948
1.2117779621
1.2124022124
1.2128084578
1.2130090512
1.2121517894
1.2208659403
1.2188241360
1.2189023723
1.2190491890
1.2192668566
1.2195578580
1.2199243610
1.2203683258
1.2208904384
1.2214898122
1.2221645000
1.2229113117
1.2237266042
1.2246077440
1.2255542650
1.2265690343
1.2276570786
1.2288195472
1.2300361022
1.2312242824
1.2321656612
1.2339260729
1.0701537911
1.0727844509
1.0763805269
1.0820464243
1.0890916828
1.0970624860
1.1056179840
1.1143836153
1.1230399170
1.1313581224
1.1391807847
1.1464206837
1.1530521318
1.1591023928
1.1646276969
1.1696972388
1.1743793770
1.1787321119
1.1827981744
1.1866033850
1.1901587209
1.1934631928
1.1965078852
1.1992808852
1.2017709955
1.2039705687
1.2058779115
1.2074977305
1.2088403148
1.2099205931
1.2107559718
1.2113638485
1.2117598025
1.2119556429
1.2106328608
1.2197571329
1.2178730009
1.2179349776
1.2180475325
1.2182132203
1.2184347936
1.2187146651
1.2190551012
1.2194571233
1.2199203143
1.2204436652
1.2210257344
1.2216662440
1.2223690866
1.2231457276
1.2240200779
1.2250324229
1.2262382109
1.2276896302
1.2293710581
1.2310332396
1.2328062460
1.0611442175
1.0638801116
1.0694208741
1.0769242882
1.0855389774
1.0948450805
1.1045012523
1.1141752726
1.1235831099
1.1324938289
1.1407505271
1.1482721099
1.1550466573
1.1611167574
1.1665577671
1.1714592868
1.1759101023
1.1799882413
1.1837551254
1.1872537419
1.1905098938
1.1935346221
1.1963277583
1.1988825749
1.2011897986
1.2032407783
1.2050307403
1.2065601462
1.2078345826
1.2088645816
1.2096639053
1.2102471393
1.2106279826
1.2108171898
1.2090051643
1.2187988573
1.2170754182
1.2171238553
1.2172070932
1.2173275901
1.2174877599
1.2176894050
1.2179339706
1.2182213468
1.2185496820
1.2189164658
1.2193188901
1.2197562020
1.2202345645
1.2207737699
1.2214188746
1.2222565648
1.2234337532
1.2251653024
1.2276814592
1.2309665621
1.2327329365
1.0483463516
1.0512294993
1.0607910238
1.0712303732
1.0819823111
1.0929156548
1.1038101787
1.1144573666
1.1246274041
1.1341156958
1.1427791156
1.1505503756
1.1574346029
1.1634933438
1.1688229755
1.1735340862
1.1777352852
1.1815229208
1.1849751659
1.1881500292
1.1910865304
1.1938070526
1.1963202570
1.1986256308
1.2007174071
1.2025877190
1.2042303895
1.2056429335
1.2068270293
1.2077891020
1.2085391445
1.2090885444
1.2094486363
1.2096286909
1.2073278279
1.2180050351
1.2164377626
1.2164754849
1.2165345966
1.2166171175
1.2167245610
1.2168573026
1.2170148316
1.2171943296
1.2173902841
1.2175955090
1.2178012256
1.2179995183
1.2181894123
1.2183866574
1.2186441508
1.2190901133
1.2199954459
1.2218856095
1.2256870026
1.2327388487
1.2344733722
1.0284930755
1.0316540741
1.0500059235
1.0653328184
1.0789602943
1.0916777147
1.1038117769
1.1153775069
1.1262394702
1.1362322842
1.1452323803
1.1531891264
1.1601264823
1.1661269724
1.1713090076
1.1758042242
1.1797399374
1.1832287064
1.1863627885
1.1892122510
1.1918267689
1.1942380826
1.1964626070
1.1985058680
1.2003661923
1.2020376197
1.2035139365
1.2047910579
1.2058678835
1.2067475290
1.2074366727
1.2079436750
1.2082774884
1.2084458004
1.2056848214
1.2173825669
1.2159592394
1.2159891478
1.2160295596
1.2160817834
1.2161459728
1.2162203835
1.2163015390
1.2163824113
1.2164515343
1.2164934468
1.2164875517
1.2164090375
1.2162334642
1.2159453093
1.2155620323
1.2151945002
1.2151966320
1.2165523124
1.2218769240
1.2378694754
1.2395347203
0.9976076013
1.0010569492
1.0385671991
1.0608644111
1.0774175765
1.0916532510
1.1047597352
1.1170316924
1.1284209727
1.1387874901
1.1480174637
1.1560716325
1.1629907113
1.1688777638
1.1738729977
1.1781284434
1.1817885530
1.1849797231
1.1878052480
1.1903439610
1.1926529926
1.1947706989
1.1967191881
1.1985087669
1.2001414099
1.2016133248
1.2029190515
1.2040540029
1.2050154916
1.2058044361
1.2064251223
1.2068835783
1.2071868396
1.2073412778
1.2041788186
1.2169308585
1.2156318385
1.2156568601
1.2156841831
1.2157142331
1.2157455063
1.2157736785
1.2157915946
1.2157868960
1.2157403069
1.2156248881
1.2154023599
1.2150195998
1.2144050645
1.2134596234
1.2120417161
1.2099358032
1.2067657470
1.2017480496
1.1929176191
1.1744652929
1.1125486248
1.0230414212
1.0357156655
1.0605642815
1.0490843723
1.0566021471
1.0682023040
1.0809879910
1.0940739278
1.1070133673
1.1194533040
1.1310786365
1.1416363963
1.1509678119
1.1590231419
1.1658514120
1.1715730246
1.1763484769
1.1803488834
1.1837339953
1.1866415664
1.1891829145
1.1914423235
1.1934810382
1.1953409215
1.1970471128
1.1986126633
1.2000418785
1.2013325667
1.2024801366
1.2034801545
1.2043293763
1.2050277319
1.2055783312
1.2059859688
1.2062566421
1.2063960098
1.2029187816
1.2166427276
1.2154417210
1.2154647379
1.2154846731
1.2155010151
1.2155105207
1.2155061472
1.2154768396
1.2154045413
1.2152615791
1.2150085916
1.2145881849
1.2139169512
1.2128744379
1.2112797110
1.2088512213
1.2051316087
1.1993301357
1.1900003447
1.1743807305
1.1471380719
1.0946760238
1.0237888439
1.0370038088
1.0510412373
1.0535318980
1.0609502266
1.0715079401
1.0836592530
1.0965227771
1.1094901519
1.1220641401
1.1338309867
1.1444797030
1.1538238853
1.1618086390
1.1684929462
1.1740147932
1.1785545464
1.1823013156
1.1854284367
1.1880827171
1.1903807705
1.1924093161
1.1942305747
1.1958868295
1.1974033985
1.1987936355
1.2000622999
1.2012076061
1.2022253548
1.2031114581
1.2038628759
1.2044797000
1.2049652021
1.2053242880
1.2055630830
1.2056873853
1.2020048819
1.2165060284
1.2153712953
1.2153950666
1.2154132821
1.2154245634
1.2154240575
1.2154022152
1.2153443781
1.2152272442
1.2150154989
1.2146587065
1.2140829685
1.2131800904
1.2117927662
1.2096856789
1.2065007864
1.2016867384
1.1943785577
1.1832232767
1.1661932163
1.1406355986
1.1033754256
1.0628642646
1.0553424790
1.0573493084
1.0597907729
1.0658447903
1.0751151495
1.0865007587
1.0990294824
1.1119174193
1.1245242637
1.1363413702
1.1470031514
1.1562983003
1.1641684344
1.1706830256
1.1759974447
1.1803107112
1.1838284875
1.1867358074
1.1891863689
1.1912996791
1.1931623348
1.1948348231
1.1963570742
1.1977518894
1.1990304509
1.2001958916
1.2012453277
1.2021741195
1.2029783976
1.2036558594
1.2042078015
1.2046390038
1.2049559240
1.2051661207
1.2052765157
1.2015129412
1.2165049401
1.2154009134
1.2154280019
1.2154500021
1.2154648391
1.2154663615
1.2154430039
1.2153772186
1.2152415365
1.2149946979
1.2145779109
1.2139053836
1.2128522447
1.2112390659
1.2088031170
1.2051596970
1.1997526800
1.1917895785
1.1801979435
1.1637005696
1.1412347554
1.1128924365
1.0846488476
1.0709247026
1.0662848461
1.0662921144
1.0706157958
1.0785746234
1.0891288681
1.1012244863
1.1139330106
1.1264841505
1.1382787236
1.1488989688
1.1581103310
1.1658514825
1.1722017664
1.1773319672
1.1814575807
1.1847977289
1.1875469762
1.1898636605
1.1918680444
1.1936444941
1.1952495631
1.1967185417
1.1980694180
1.1993090051
1.2004368811
1.2014476078
1.2023352550
1.2030959812
1.2037286934
1.2042368824
1.2046281466
1.2049119225
1.2050985046
1.2051969287
1.2014814572
1.2166228772
1.2155121241
1.2155448737
1.2155759303
1.2156027554
1.2156183297
1.2156097389
1.2155575113
1.2154314508
1.2151864943
1.2147587030
1.2140553200
1.2129424988
1.2112306728
1.2086473049
1.2048061385
1.1991764490
1.1910570238
1.1796042594
1.1640056806
1.1439331123
1.1203698182
1.0974408897
1.0820709400
1.0741133801
1.0719143994
1.0746461035
1.0814296959
1.0911915994
1.1028130874
1.1152653788
1.1276803391
1.1393862175
1.1499217587
1.1590326266
1.1666543809
1.1728733052
1.1778717110
1.1818768184
1.1851169403
1.1877922297
1.1900634148
1.1920494246
1.1938306312
1.1954578854
1.1969600716
1.1983486055
1.1996242346
1.2007815049
1.2018113697
1.2027060802
1.2034618736
1.2040794739
1.2045656042
1.2049319498
1.2051922482
1.2053607045
1.2054493417
1.2019060336
1.2168448919
1.2156903639
1.2157309321
1.2157760944
1.2158230923
1.2158645051
1.2158868428
1.2158697269
1.2157818324
1.2155765444
1.2151879098
1.2145206477
1.2134381821
1.2117494828
1.2091806024
1.2053503678
1.1997483059
1.1917254655
1.1805495085
1.1656054713
1.1468277577
1.1253817440
1.1045082279
1.0887088475
1.0792548807
1.0757026351
1.0773439266
1.0832737033
1.0924038882
1.1035858036
1.1157420760
1.1279537275
1.1395090821
1.1499219895
1.1589260724
1.1664540849
1.1725950820
1.1775364747
1.1815105344
1.1847488677
1.1874519292
1.1897795564