<VTKFile type="UnstructuredGrid" version="0.1">
	<UnstructuredGrid>
		<Piece NumberOfPoints="13548" NumberOfCells="3387">
			<CellData>
				<DataArray type="Int32" Name="ghost" NumberOfComponents="1" Format="ascii">
1
1
1
1
1
1
1
1
1
1
1
1
1
1
1
1
1
1
1
1
1
1
1
1
1
1
1
1
1
1
1
1
1
1
1
1
1
1
1
1
1
1
1
1
1
1
1
1
1
1
1
1
1
1
1
1
1
1
0
0
0
0
0
0
0
0
0
0
0
0
0
0
0
0
0
0
0
0
1
1
0
0
0
0
0
0
0
0
0
0
0
0
0
0
0
0
0
0
0
0
0
0
0
0
0
0
0
0
0
0
0
0
0
1
1
0
0
0
0
0
0
0
0
0
0
0
0
0
0
0
0
0
0
0
0
1
1
0
0
0
0
0
0
0
0
0
0
0
0
0
0
0
0
0
0
0
0
0
0
0
0
0
0
0
0
0
0
0
0
0
1
1
0
0
0
0
0
0
0
0
0
0
0
0
0
0
0
0
0
0
0
0
1
1
0
0
0
0
0
0
0
0
0
0
0
0
0
0
0
0
0
0
0
0
0
0
0
0
0
0
0
0
0
0
0
0
0
1
1
0
0
0
0
0
0
0
0
0
0
0
0
0
0
0
0
0
0
0
0
1
1
0
0
0
0
0
0
0
0
0
0
0
0
0
0
0
0
0
0
0
0
0
0
0
0
0
0
0
0
0
0
0
0
0
1
1
0
0
0
0
0
0
0
0
0
0
0
0
0
0
0
0
0
0
0
0
1
1
0
0
0
0
0
0
0
0
0
0
0
0
0
0
0
0
0
0
0
0
0
0
0
0
0
0
0
0
0
0
0
0
0
1
1
0
0
0
0
0
0
0
0
0
0
0
0
0
0
0
0
0
0
0
0
1
1
0
0
0
0
0
0
0
0
0
0
0
0
0
0
0
0
0
0
0
0
0
0
0
0
0
0
0
0
0
0
0
0
0
1
1
0
0
0
0
0
0
0
0
0
0
0
0
0
0
0
0
0
0
0
0
1
1
0
0
0
0
0
0
0
0
0
0
0
0
0
0
0
0
0
0
0
0
0
0
0
0
0
0
0
0
0
0
0
0
0
1
1
0
0
0
0
0
0
0
0
0
0
0
0
0
0
0
0
0
0
0
0
1
1
0
0
0
0
0
0
0
0
0
0
0
0
0
0
0
0
0
0
0
0
0
0
0
0
0
0
0
0
0
0
0
0
0
1
1
0
0
0
0
0
0
0
0
0
0
0
0
0
0
0
0
0
0
0
0
1
1
0
0
0
0
0
0
0
0
0
0
0
0
0
0
0
0
0
0
0
0
0
0
0
0
0
0
0
0
0
0
0
0
0
1
1
0
0
0
0
0
0
0
0
0
0
0
0
0
0
0
0
0
0
0
0
1
1
0
0
0
0
0
0
0
0
0
0
0
0
0
0
0
0
0
0
0
0
0
0
0
0
0
0
0
0
0
0
0
0
0
1
1
0
0
0
0
0
0
0
0
0
0
0
0
0
0
0
0
0
0
0
0
1
1
0
0
0
0
0
0
0
0
0
0
0
0
0
0
0
0
0
0
0
0
0
0
0
0
0
0
0
0
0
0
0
0
0
1
1
0
0
0
0
0
0
0
0
0
0
0
0
0
0
0
0
0
0
0
0
1
1
0
0
0
0
0
0
0
0
0
0
0
0
0
0
0
0
0
0
0
0
0
0
0
0
0
0
0
0
0
0
0
0
0
1
1
0
0
0
0
0
0
0
0
0
0
0
0
0
0
0
0
0
0
0
0
1
1
0
0
0
0
0
0
0
0
0
0
0
0
0
0
0
0
0
0
0
0
0
0
0
0
0
0
0
0
0
0
0
0
0
1
1
0
0
0
0
0
0
0
0
0
0
0
0
0
0
0
0
0
0
0
0
1
1
0
0
0
0
0
0
0
0
0
0
0
0
0
0
0
0
0
0
0
0
0
0
0
0
0
0
0
0
0
0
0
0
0
1
1
0
0
0
0
0
0
0
0
0
0
0
0
0
0
0
0
0
0
0
0
1
1
0
0
0
0
0
0
0
0
0
0
0
0
0
0
0
0
0
0
0
0
0
0
0
0
0
0
0
0
0
0
0
0
0
1
1
0
0
0
0
0
0
0
0
0
0
0
0
0
0
0
0
0
0
0
0
1
1
0
0
0
0
0
0
0
0
0
0
0
0
0
0
0
0
0
0
0
0
0
0
0
0
0
0
0
0
0
0
0
0
0
1
1
0
0
0
0
0
0
0
0
0
0
0
0
0
0
0
0
0
0
0
0
1
1
0
0
0
0
0
0
0
0
0
0
0
0
0
0
0
0
0
0
0
0
0
0
0
0
0
0
0
0
0
0
0
0
0
1
1
0
0
0
0
0
0
0
0
0
0
0
0
0
0
0
0
0
0
0
0
1
1
0
0
0
0
0
0
0
0
0
0
0
0
0
0
0
0
0
0
0
0
0
0
0
0
0
0
0
0
0
0
0
0
0
1
1
0
0
0
0
0
0
0
0
0
0
0
0
0
0
0
0
0
0
0
0
1
1
0
0
0
0
0
0
0
0
0
0
0
0
0
0
0
0
0
0
0
0
0
0
0
0
0
0
0
0
0
0
0
0
0
1
1
0
0
0
0
0
0
0
0
0
0
0
0
0
0
0
0
0
0
0
0
1
1
0
0
0
0
0
0
0
0
0
0
0
0
0
0
0
0
0
0
0
0
0
0
0
0
0
0
0
0
0
0
0
0
0
1
1
0
0
0
0
0
0
0
0
0
0
0
0
0
0
0
0
0
0
0
0
1
1
0
0
0
0
0
0
0
0
0
0
0
0
0
0
0
0
0
0
0
0
0
0
0
0
0
0
0
0
0
0
0
0
0
1
1
0
0
0
0
0
0
0
0
0
0
0
0
0
0
0
0
0
0
0
0
1
1
0
0
0
0
0
0
0
0
0
0
0
0
0
0
0
0
0
0
0
0
0
0
0
0
0
0
0
0
0
0
0
0
0
1
1
0
0
0
0
0
0
0
0
0
0
0
0
0
0
0
0
0
0
0
0
1
1
0
0
0
0
0
0
0
0
0
0
0
0
0
0
0
0
0
0
0
0
0
0
0
0
0
0
0
0
0
0
0
0
0
1
1
0
0
0
0
0
0
0
0
0
0
0
0
0
0
0
0
0
0
0
0
1
1
0
0
0
0
0
0
0
0
0
0
0
0
0
0
0
0
0
0
0
0
0
0
0
0
0
0
0
0
0
0
0
0
0
1
1
0
0
0
0
0
0
0
0
0
0
0
0
0
0
0
0
0
0
0
0
0
1
1
0
0
0
0
0
0
0
0
0
0
0
0
0
0
0
0
0
0
0
0
0
0
0
0
0
0
0
0
0
0
0
0
0
0
1
1
0
0
0
0
0
0
0
0
0
0
0
0
0
0
0
0
0
0
0
0
0
0
0
0
0
0
0
0
0
0
0
0
0
0
0
0
0
0
0
0
0
0
0
0
0
0
0
0
0
0
0
0
0
0
0
0
0
1
1
0
0
0
0
0
0
0
0
0
0
0
0
0
0
0
0
0
0
0
0
0
0
0
0
0
0
0
0
0
0
0
0
0
0
0
0
0
0
0
0
0
0
0
0
0
0
0
0
0
0
0
0
0
0
0
0
0
1
1
0
0
0
0
0
0
0
0
0
0
0
0
0
0
0
0
0
0
0
0
0
0
0
0
0
0
0
0
0
0
0
0
0
0
0
0
0
0
0
0
0
0
0
0
0
0
0
0
0
0
0
0
0
0
0
0
0
1
1
0
0
0
0
0
0
0
0
0
0
0
0
0
0
0
0
0
0
0
0
0
0
0
0
0
0
0
0
0
0
0
0
0
0
0
0
0
0
0
0
0
0
0
0
0
0
0
0
0
0
0
0
0
0
0
0
0
1
1
0
0
0
0
0
0
0
0
0
0
0
0
0
0
0
0
0
0
0
0
0
0
0
0
0
0
0
0
0
0
0
0
0
0
0
0
0
0
0
0
0
0
0
0
0
0
0
0
0
0
0
0
0
0
0
0
0
1
1
0
0
0
0
0
0
0
0
0
0
0
0
0
0
0
0
0
0
0
0
0
0
0
0
0
0
0
0
0
0
0
0
0
0
0
0
0
0
0
0
0
0
0
0
0
0
0
0
0
0
0
0
0
0
0
0
0
1
1
0
0
0
0
0
0
0
0
0
0
0
0
0
0
0
0
0
0
0
0
0
0
0
0
0
0
0
0
0
0
0
0
0
0
0
0
0
0
0
0
0
0
0
0
0
0
0
0
0
0
0
0
0
0
0
0
0
1
1
0
0
0
0
0
0
0
0
0
0
0
0
0
0
0
0
0
0
0
0
0
0
0
0
0
0
0
0
0
0
0
0
0
0
0
0
0
0
0
0
0
0
0
0
0
0
0
0
0
0
0
0
0
0
0
0
0
1
1
0
0
0
0
0
0
0
0
0
0
0
0
0
0
0
0
0
0
0
0
0
0
0
0
0
0
0
0
0
0
0
0
0
0
0
0
0
0
0
0
0
0
0
0
0
0
0
0
0
0
0
0
0
0
0
0
0
1
1
0
0
0
0
0
0
0
0
0
0
0
0
0
0
0
0
0
0
0
0
0
0
0
0
0
0
0
0
0
0
0
0
0
0
0
0
0
0
0
0
0
0
0
0
0
0
0
0
0
0
0
0
0
0
0
0
0
1
1
0
0
0
0
0
0
0
0
0
0
0
0
0
0
0
0
0
0
0
0
0
1
1
0
0
0
0
0
0
0
0
0
0
0
0
0
0
0
0
0
0
0
0
0
0
0
0
0
0
0
0
0
0
0
0
0
0
1
1
0
0
0
0
0
0
0
0
0
0
0
0
0
0
0
0
0
0
0
0
1
1
0
0
0
0
0
0
0
0
0
0
0
0
0
0
0
0
0
0
0
0
0
0
0
0
0
0
0
0
0
0
0
0
0
1
1
0
0
0
0
0
0
0
0
0
0
0
0
0
0
0
0
0
0
0
0
1
1
0
0
0
0
0
0
0
0
0
0
0
0
0
0
0
0
0
0
0
0
0
0
0
0
0
0
0
0
0
0
0
0
0
1
1
0
0
0
0
0
0
0
0
0
0
0
0
0
0
0
0
0
0
0
0
1
1
0
0
0
0
0
0
0
0
0
0
0
0
0
0
0
0
0
0
0
0
0
0
0
0
0
0
0
0
0
0
0
0
0
1
1
0
0
0
0
0
0
0
0
0
0
0
0
0
0
0
0
0
0
0
0
1
1
0
0
0
0
0
0
0
0
0
0
0
0
0
0
0
0
0
0
0
0
0
0
0
0
0
0
0
0
0
0
0
0
0
1
1
0
0
0
0
0
0
0
0
0
0
0
0
0
0
0
0
0
0
0
0
1
1
0
0
0
0
0
0
0
0
0
0
0
0
0
0
0
0
0
0
0
0
0
0
0
0
0
0
0
0
0
0
0
0
0
1
1
0
0
0
0
0
0
0
0
0
0
0
0
0
0
0
0
0
0
0
0
1
1
0
0
0
0
0
0
0
0
0
0
0
0
0
0
0
0
0
0
0
0
0
0
0
0
0
0
0
0
0
0
0
0
0
1
1
0
0
0
0
0
0
0
0
0
0
0
0
0
0
0
0
0
0
0
0
1
1
0
0
0
0
0
0
0
0
0
0
0
0
0
0
0
0
0
0
0
0
0
0
0
0
0
0
0
0
0
0
0
0
0
1
1
0
0
0
0
0
0
0
0
0
0
0
0
0
0
0
0
0
0
0
0
1
1
0
0
0
0
0
0
0
0
0
0
0
0
0
0
0
0
0
0
0
0
0
0
0
0
0
0
0
0
0
0
0
0
0
1
1
0
0
0
0
0
0
0
0
0
0
0
0
0
0
0
0
0
0
0
0
1
1
0
0
0
0
0
0
0
0
0
0
0
0
0
0
0
0
0
0
0
0
0
0
0
0
0
0
0
0
0
0
0
0
0
1
1
0
0
0
0
0
0
0
0
0
0
0
0
0
0
0
0
0
0
0
0
1
1
0
0
0
0
0
0
0
0
0
0
0
0
0
0
0
0
0
0
0
0
0
0
0
0
0
0
0
0
0
0
0
0
0
1
1
0
0
0
0
0
0
0
0
0
0
0
0
0
0
0
0
0
0
0
0
1
1
0
0
0
0
0
0
0
0
0
0
0
0
0
0
0
0
0
0
0
0
0
0
0
0
0
0
0
0
0
0
0
0
0
1
1
0
0
0
0
0
0
0
0
0
0
0
0
0
0
0
0
0
0
0
0
1
1
0
0
0
0
0
0
0
0
0
0
0
0
0
0
0
0
0
0
0
0
0
0
0
0
0
0
0
0
0
0
0
0
0
1
1
0
0
0
0
0
0
0
0
0
0
0
0
0
0
0
0
0
0
0
0
1
1
0
0
0
0
0
0
0
0
0
0
0
0
0
0
0
0
0
0
0
0
0
0
0
0
0
0
0
0
0
0
0
0
0
1
1
0
0
0
0
0
0
0
0
0
0
0
0
0
0
0
0
0
0
0
0
1
1
0
0
0
0
0
0
0
0
0
0
0
0
0
0
0
0
0
0
0
0
0
0
0
0
0
0
0
0
0
0
0
0
0
1
1
0
0
0
0
0
0
0
0
0
0
0
0
0
0
0
0
0
0
0
0
1
1
0
0
0
0
0
0
0
0
0
0
0
0
0
0
0
0
0
0
0
0
0
0
0
0
0
0
0
0
0
0
0
0
0
1
1
0
0
0
0
0
0
0
0
0
0
0
0
0
0
0
0
0
0
0
0
1
1
0
0
0
0
0
0
0
0
0
0
0
0
0
0
0
0
0
0
0
0
0
0
0
0
0
0
0
0
0
0
0
0
0
1
1
0
0
0
0
0
0
0
0
0
0
0
0
0
0
0
0
0
0
0
0
1
1
0
0
0
0
0
0
0
0
0
0
0
0
0
0
0
0
0
0
0
0
0
0
0
0
0
0
0
0
0
0
0
0
0
1
1
0
0
0
0
0
0
0
0
0
0
0
0
0
0
0
0
0
0
0
0
1
1
0
0
0
0
0
0
0
0
0
0
0
0
0
0
0
0
0
0
0
0
0
0
0
0
0
0
0
0
0
0
0
0
0
1
1
0
0
0
0
0
0
0
0
0
0
0
0
0
0
0
0
0
0
0
0
1
1
0
0
0
0
0
0
0
0
0
0
0
0
0
0
0
0
0
0
0
0
0
0
0
0
0
0
0
0
0
0
0
0
0
1
1
0
0
0
0
0
0
0
0
0
0
0
0
0
0
0
0
0
0
0
0
1
1
0
0
0
0
0
0
0
0
0
0
0
0
0
0
0
0
0
0
0
0
0
0
0
0
0
0
0
0
0
0
0
0
0
1
1
0
0
0
0
0
0
0
0
0
0
0
0
0
0
0
0
0
0
0
0
1
1
0
0
0
0
0
0
0
0
0
0
0
0
0
0
0
0
0
0
0
0
0
0
0
0
0
0
0
0
0
0
0
0
0
1
1
1
1
1
1
1
1
1
1
1
1
1
1
1
1
1
1
1
1
1
1
1
1
1
1
1
1
1
1
1
1
1
1
1
1
1
1
1
1
1
1
1
1
1
1
1
1
1
1
1
1
1
1
1
1
1
1
				</DataArray>
				<DataArray type="Float64" Name="h" NumberOfComponents="1" Format="ascii">
1.1609778057
1.1610533102
1.1608958262
1.1605850416
1.1601292231
1.1595404471
1.1588342681
1.1580292238
1.1571462182
1.1562079742
1.1552383344
1.1542615501
1.1533017326
1.1523822012
1.1515249020
1.1507500218
1.1500755326
1.1495168343
1.1490865563
1.1487943155
1.1486465665
1.1486465665
1.1988131982
1.1979381940
1.1984115959
1.1993512971
1.2007329876
1.2025212230
1.2046699268
1.2071231042
1.2098172820
1.2126837653
1.2156514297
1.2186506621
1.2216163953
1.2244909426
1.2272265860
1.2297865265
1.2321452818
1.2342883068
1.2362104974
1.2379147841
1.2394102682
1.2407102141
1.2418306881
1.2427889255
1.2436021077
1.2442868889
1.2448585111
1.2453303766
1.2457142428
1.2460198315
1.2462548459
1.2464254430
1.2465359927
1.2465891767
1.2465891767
1.1610533102
1.1610575256
1.1609048615
1.1606035712
1.1601616373
1.1595907219
1.1589058596
1.1581249928
1.1572683764
1.1563580520
1.1554171722
1.1544693013
1.1535378771
1.1526455662
1.1518136919
1.1510618553
1.1504074896
1.1498655153
1.1494481578
1.1491647133
1.1490214189
1.1486465665
1.1979381940
1.1971481609
1.1976302970
1.1985867729
1.1999910238
1.2018045990
1.2039780511
1.2064520845
1.2091604638
1.2120326402
1.2149967829
1.2179837984
1.2209302428
1.2237808913
1.2264909577
1.2290266516
1.2313652347
1.2334943700
1.2354104717
1.2371172605
1.2386239243
1.2399432079
1.2410901713
1.2420806966
1.2429303854
1.2436542017
1.2442656731
1.2447765344
1.2451969868
1.2455353488
1.2457981054
1.2459904107
1.2461158642
1.2461766224
1.2465891767
1.1607157897
1.1607238910
1.1605702553
1.1602670096
1.1598221167
1.1592472201
1.1585573471
1.1577704554
1.1569068487
1.1559886608
1.1550391843
1.1540821728
1.1531412980
1.1522395030
1.1513984087
1.1506379277
1.1499757981
1.1494272265
1.1490046850
1.1487176686
1.1485725527
1.1481882233
1.1979610741
1.1971711454
1.1976530390
1.1986091146
1.2000129469
1.2018262759
1.2039998751
1.2064746727
1.2091846328
1.2120593551
1.2150270852
1.2180187214
1.2209707260
1.2238277029
1.2265446355
1.2290874670
1.2314331827
1.2335691829
1.2354916524
1.2372041296
1.2387156751
1.2400389679
1.2411890176
1.2421817347
1.2430328034
1.2437573056
1.2443689074
1.2448794899
1.2452993986
1.2456370854
1.2458991528
1.2460908519
1.2462158566
1.2462763741
1.2466899334
1.1600472774
1.1600627969
1.1599072599
1.1596001887
1.1591495094
1.1585668310
1.1578671693
1.1570685144
1.1561912680
1.1552577438
1.1542915119
1.1533166941
1.1523574242
1.1514371751
1.1505781525
1.1498008684
1.1491236546
1.1485622667
1.1481296572
1.1478357056
1.1476870538
1.1472851302
1.1979872966
1.1971980135
1.1976797675
1.1986357114
1.2000396616
1.2018536904
1.2040289542
1.2065067666
1.2092214289
1.2121027812
1.2150791728
1.2180814478
1.2210458526
1.2239166314
1.2266482997
1.2292062689
1.2315669784
1.2337173157
1.2356530223
1.2373772904
1.2388989462
1.2402305638
1.2413870970
1.2423845312
1.2432387118
1.2439649462
1.2445771658
1.2450875324
1.2455066692
1.2458432855
1.2461042095
1.2462948794
1.2464191126
1.2464792132
1.2468945869
1.1590601146
1.1590861075
1.1589278181
1.1586152110
1.1581561624
1.1575622359
1.1568484341
1.1560328002
1.1551358790
1.1541802518
1.1531898857
1.1521894412
1.1512037100
1.1502569312
1.1493721406
1.1485707162
1.1478718371
1.1472920481
1.1468449871
1.1465410830
1.1463873570
1.1459617639
1.1980136550
1.1972261016
1.1977078107
1.1986638704
1.2000684456
1.2018840862
1.2040624989
1.2065455504
1.2092680235
1.2121600967
1.2151502577
1.2181692560
1.2211530053
1.2240452061
1.2267996706
1.2293810138
1.2317648595
1.2339373296
1.2358935056
1.2376360650
1.2391734888
1.2405181987
1.2416850780
1.2426902308
1.2435497375
1.2442792306
1.2448930235
1.2454036828
1.2458222303
1.2461577455
1.2464173798
1.2466068386
1.2467301436
1.2467897374
1.2472074587
1.1577725363
1.1578113895
1.1576496217
1.1573300212
1.1568604057
1.1562522864
1.1555206593
1.1546836376
1.1537619589
1.1527785401
1.1517578533
1.1507252290
1.1497062913
1.1487262238
1.1478091270
1.1469774575
1.1462514460
1.1456486185
1.1451834667
1.1448671020
1.1447070203
1.1442544677
1.1980350093
1.1972510297
1.1977327938
1.1986892201
1.2000949313
1.2019131045
1.2040961680
1.2065867145
1.2093201584
1.2122271216
1.2152362719
1.2182782306
1.2212884690
1.2242099646
1.2269955950
1.2296089162
1.2320244658
1.2342273461
1.2362117575
1.2379796904
1.2395391759
1.2409023873
1.2420841527
1.2431007189
1.2439684637
1.2447034329
1.2453204247
1.2458325182
1.2462512397
1.2465861356
1.2468447641
1.2470331653
1.2471556165
1.2472147333
1.2476349594
1.1562083115
1.1562616100
1.1560958127
1.1557681139
1.1552862691
1.1546617388
1.1539095156
1.1530478037
1.1520975623
1.1510821058
1.1500264616
1.1489567817
1.1478996339
1.1468813094
1.1459270850
1.1450606548
1.1443034702
1.1436741805
1.1431882537
1.1428575819
1.1426902021
1.1422106247
1.1980446239
1.1972669849
1.1977489231
1.1987059943
1.2001133914
1.2019350706
1.2041243570
1.2066247461
1.2093724396
1.2122986140
1.2153321659
1.2184035629
1.2214477308
1.2244067514
1.2272323406
1.2298867346
1.2323431150
1.2345853070
1.2366064056
1.2384075377
1.2399961863
1.2413841177
1.2425861528
1.2436186898
1.2444984496
1.2452419627
1.2458645978
1.2463800368
1.2468003974
1.2471357721
1.2473941940
1.2475820919
1.2477040388
1.2477628506
1.2481853106
1.1543960376
1.1544645128
1.1542943603
1.1539579118
1.1534628597
1.1528206131
1.1520461695
1.1511578110
1.1501767710
1.1491267876
1.1480335423
1.1469239790
1.1458257100
1.1447662139
1.1437720539
1.1428682521
1.1420775604
1.1414198322
1.1409115801
1.1405655331
1.1403903082
1.1398869245
1.1980354159
1.1972679029
1.1977501594
1.1987081901
1.2001178732
1.2019440988
1.2041412666
1.2066539562
1.2094193171
1.2123691981
1.2154327818
1.2185403654
1.2216262342
1.2246314092
1.2275062225
1.2302113321
1.2327182928
1.2350093931
1.2370763916
1.2389193582
1.2405451109
1.2419649433
1.2431935849
1.2442476026
1.2451441033
1.2459001573
1.2465317706
1.2470532990
1.2474775194
1.2478151322
1.2480746970
1.2482630722
1.2483851570
1.2484439873
1.2488679976
1.1523683715
1.1524519027
1.1522773398
1.1519320297
1.1514236003
1.1507634075
1.1499664522
1.1490511380
1.1480389176
1.1469539691
1.1458226134
1.1446726428
1.1435327145
1.1424315077
1.1413968893
1.1404552263
1.1396305875
1.1389440446
1.1384131683
1.1380515361
1.1378683544
1.1373473833
1.1979995205
1.1972469693
1.1977297290
1.1986890999
1.2001017621
1.2019336964
1.2041405552
1.2066681858
1.2094548496
1.2124331910
1.2155327429
1.2186836236
1.2218193918
1.2248798485
1.2278137234
1.2305798392
1.2331478500
1.2354982424
1.2376211973
1.2395155300
1.2411872959
1.2426471881
1.2439097865
1.2449918092
1.2459107687
1.2466843178
1.2473291520
1.2478603546
1.2482914129
1.2486336805
1.2488962823
1.2490865356
1.2492096873
1.2492690083
1.2496935535
1.1501613222
1.1502590038
1.1500802770
1.1497266057
1.1492055486
1.1485284020
1.1477101577
1.1467693019
1.1457275112
1.1446093672
1.1434417918
1.1422533830
1.1410737938
1.1399328495
1.1388596635
1.1378818883
1.1370248526
1.1363107950
1.1357583011
1.1353817667
1.1351909686
1.1346610257
1.1979286964
1.1971969549
1.1976804627
1.1986416566
1.2000581379
1.2018971326
1.2041157224
1.2066612044
1.2094731162
1.2124850237
1.2156268807
1.2188286246
1.2220230081
1.2251484580
1.2281518855
1.2309900184
1.2336303330
1.2360512414
1.2382411009
1.2401972683
1.2419249158
1.2434340135
1.2447389000
1.2458564214
1.2468045022
1.2476014026
1.2482645437
1.2488097777
1.2492513398
1.2496012711
1.2498692906
1.2500631959
1.2501885980
1.2502490133
1.2506729032
1.1478131628
1.1479234391
1.1477411217
1.1473802329
1.1468482529
1.1461564013
1.1453196342
1.1443564822
1.1432887934
1.1421414858
1.1409419983
1.1397196360
1.1385049343
1.1373287402
1.1362212816
1.1352113635
1.1343254463
1.1335868212
1.1330149938
1.1326251095
1.1324274743
1.1318987378
1.1978155461
1.1971113705
1.1975959420
1.1985595678
1.1999808897
1.2018285309
1.2040611724
1.2066277373
1.2094692004
1.2125201742
1.2157111075
1.2189717613
1.2222340078
1.2254347508
1.2285188686
1.2314407339
1.2341653622
1.2366688094
1.2389373539
1.2409667044
1.2427609588
1.2443292650
1.2456856187
1.2468469577
1.2478316129
1.2486584644
1.2493456867
1.2499099306
1.2503662095
1.2507272792
1.2510034764
1.2512030964
1.2513321277
1.2513943426
1.2518164527
1.1453633804
1.1454842061
1.1452991915
1.1449328657
1.1443926133
1.1436895474
1.1428385444
1.1418581168
1.1407702015
1.1395999466
1.1383751786
1.1371257563
1.1358829236
1.1346783575
1.1335431995
1.1325072032
1.1315977664
1.1308390594
1.1302513673
1.1298504859
1.1296471944
1.1291304797
1.1976529898
1.1969838911
1.1974699352
1.1984367773
1.1998642197
1.2017224274
1.2039718370
1.2065631596
1.2094389546
1.2125349990
1.2157823091
1.2191104754
1.2224504229
1.2257373879
1.2289140041
1.2319320225
1.2347537041
1.2373524545
1.2397122036
1.2418269866
1.2436992039
1.2453373907
1.2467550351
1.2479691227
1.2489983740
1.2498622975
1.2505798418
1.2511684862
1.2516440478
1.2520200244
1.2523073936
1.2525149669
1.2526491247
1.2527139056
1.2531334775
1.1428518742
1.1429809016
1.1427943790
1.1424249845
1.1418799801
1.1411703302
1.1403107688
1.1393197041
1.1382190496
1.1370340426
1.1357927250
1.1345253083
1.1332635165
1.1320396057
1.1308853663
1.1298312322
1.1289052819
1.1281323376
1.1275332834
1.1271244455
1.1269170177
1.1264228691
1.1974344854
1.1968085313
1.1972965741
1.1982676513
1.1997028478
1.2015740013
1.2038434359
1.2064637829
1.2093793079
1.2125270527
1.2158386610
1.2192435660
1.2226716775
1.2260564282
1.2293379891
1.2324652174
1.2353973079
1.2381047065
1.2405687020
1.2427815985
1.2447438468
1.2464629800
1.2479520876
1.2492281533
1.2503102767
1.2512186041
1.2519728826
1.2525914516
1.2530909652
1.2534856929
1.2537872830
1.2540050845
1.2541458884
1.2542140136
1.2546310037
1.1403178439
1.1404526174
1.1402660260
1.1398964253
1.1393509208
1.1386402726
1.1377789934
1.1367852809
1.1356808888
1.1344909733
1.1332435871
1.1319690555
1.1306993103
1.1294668865
1.1283039033
1.1272411475
1.1263070618
1.1255268414
1.1249217541
1.1245085279
1.1242987317
1.1238366530
1.1971548809
1.1965804725
1.1970711657
1.1980477728
1.1994927896
1.2013798383
1.2036732217
1.2063275765
1.2092889564
1.2124957283
1.2158802219
1.2193717080
1.2228990230
1.2263936453
1.2297930733
1.2330429904
1.2360992222
1.2389289474
1.2415105184
1.2438342432
1.2458986531
1.2477099565
1.2492807080
1.2506278980
1.2517710351
1.2527309297
1.2535281709
1.2541820002
1.2547099505
1.2551271048
1.2554458181
1.2556760067
1.2558248956
1.2558971015
1.2563125566
1.1377988498
1.1379369865
1.1377519527
1.1373853788
1.1368441729
1.1361388271
1.1352835415
1.1342961835
1.1331981951
1.1320144640
1.1307728285
1.1295034650
1.1282382110
1.1270095422
1.1258495386
1.1247889540
1.1238562158
1.1230765543
1.1224713688
1.1220576635
1.1218473968
1.1214252953
1.1968095869
1.1962952379
1.1967893640
1.1977731309
1.1992305934
1.2011372391
1.2034593758
1.2061536606
1.2091679363
1.2124419228
1.2159086426
1.2194971954
1.2231352652
1.2267522453
1.2302827461
1.2336690329
1.2368632721
1.2398290343
1.2425414706
1.2449886171
1.2471669270
1.2490811243
1.2507431892
1.2521701156
1.2533818390
1.2543998926
1.2552457585
1.2559396519
1.2565000390
1.2569428713
1.2572812584
1.2575257203
1.2576839466
1.2577608731
1.2581772725
1.1353302769
1.1354696254
1.1352878885
1.1349277970
1.1343960179
1.1337027069
1.1328616566
1.1318902804
1.1308095535
1.1296439048
1.1284207306
1.1271697895
1.1259225104
1.1247109463
1.1235667281
1.1225201289
1.1215991010
1.1208284902
1.1202295195
1.1198193559
1.1196104733
1.1192343503
1.1963944502
1.1959485761
1.1964470172
1.1974399557
1.1989132025
1.2008441393
1.2032009984
1.2059423343
1.2090176891
1.2123680633
1.2159271429
1.2196238165
1.2233845567
1.2271365658
1.2308114133
1.2343476736
1.2376935329
1.2408086524
1.2436647771
1.2462471999
1.2485502450
1.2505770956
1.2523391220
1.2538533425
1.2551401816
1.2562219605
1.2571211566
1.2578590323
1.2584550722
1.2589261593
1.2592862183
1.2595464179
1.2597149467
1.2597970852
1.2602186094
1.1329446000
1.1330833620
1.1329066930
1.1325566012
1.1320394703
1.1313650538
1.1305466462
1.1296010914
1.1285487548
1.1274134320
1.1262218678
1.1250031509
1.1237879957
1.1226076611
1.1214928822
1.1204729298
1.1195747095
1.1188221297
1.1182358242
1.1178330144
1.1176270279
1.1173009408
1.1959060521
1.1955367779
1.1960403732
1.1970448493
1.1985380778
1.2004992672
1.2028982850
1.2056952689
1.2088411893
1.2122781603
1.2159404480
1.2197567408
1.2236522396
1.2275518928
1.2313840434
1.2350833080
1.2385935513
1.2418702325
1.2448820871
1.2476103094
1.2500473923
1.2521951004
1.2540641763
1.2556716816
1.2570386449
1.2581882890
1.2591441894
1.2599287777
1.2605626365
1.2610636695
1.2614466794
1.2617235353
1.2619029631
1.2619906138
1.2624232900
1.1306708780
1.1308076921
1.1306378123
1.1303011397
1.1298037381
1.1291549026
1.1283673542
1.1274572737
1.1264443033
1.1253514682
1.1242046960
1.1230321979
1.1218637047
1.1207293233
1.1196584174
1.1186786411
1.1178151111
1.1170900115
1.1165227475
1.1161304282
1.1159279300
1.1156541912
1.1953406402
1.1950556298
1.1955647873
1.1965833749
1.1981018314
1.2001009057
1.2025514777
1.2054146186
1.2086422182
1.2121772101
1.2159543847
1.2199021339
1.2239444617
1.2280038842
1.2320053511
1.2358793885
1.2395653465
1.2430142558
1.2461916210
1.2490748045
1.2516534017
1.2539281355
1.2559092360
1.2576140190
1.2590641994
1.2602840711
1.2612984408
1.2621310246
1.2628036250
1.2633352444
1.2637416431
1.2640354394
1.2642259351
1.2643191772
1.2647708328
1.1285346934
1.1286686792
1.1285071819
1.1281870960
1.1277141388
1.1270971084
1.1263481023
1.1254825811
1.1245193988
1.1234807349
1.1223916076
1.1212792238
1.1201721360
1.1190989907
1.1180872959
1.1171623630
1.1163465226
1.1156590342
1.1151169431
1.1147367902
1.1145361982
1.1143157891
1.1946937858
1.1945001560
1.1950138800
1.1960489917
1.1975992632
1.1996462131
1.2021604409
1.2051027817
1.2084252536
1.2120711916
1.2159756400
1.2200667131
1.2242671743
1.2284972697
1.2326785491
1.2367373503
1.2406084512
1.2442385529
1.2475887911
1.2506330510
1.2533581024
1.2557635467
1.2578592829
1.2596629574
1.2611972843
1.2624877167
1.2635604934
1.2644407622
1.2651516499
1.2657133643
1.2661426823
1.2664530261
1.2666543049
1.2667529825
1.2672329774
1.1265579356
1.1266886886
1.1265369676
1.1262362428
1.1257918733
1.1252121446
1.1245085156
1.1236957189
1.1227918219
1.1218181690
1.1207988841
1.1197601659
1.1187293243
1.1177333474
1.1167974450
1.1159437601
1.1151904862
1.1145520537
1.1140409815
1.1136718189
1.1134664727
1.1132996931
1.1939604962
1.1938649902
1.1943784148
1.1954314915
1.1970220718
1.1991303693
1.2017241709
1.2047621041
1.2081950994
1.2119662313
1.2160106583
1.2202563158
1.2246249997
1.2290349102
1.2334044094
1.2376560861
1.2417197139
1.2455365215
1.2490640449
1.2522721725
1.2551455119
1.2576824240
1.2598926111
1.2617943574
1.2634113299
1.2647705420
1.2658997711
1.2668257834
1.2675731428
1.2681633325
1.2686142202
1.2689400606
1.2691513995
1.2692551306
1.2697738534
1.1247587574
1.1248863127
1.1247454988
1.1244663926
1.1240539997
1.1235161057
1.1228635576
1.1221104116
1.1212740313
1.1203750461
1.1194368414
1.1184847809
1.1175450755
1.1166430724
1.1158014054
1.1150382113
1.1143657887
1.1137907182
1.1133167295
1.1129521614
1.1127233996
1.1126107829
1.1931359008
1.1931450452
1.1936427256
1.1947122532
1.1963544758
1.1985430235
1.2012380512
1.2043927784
1.2079553003
1.2118677870
1.2160655093
1.2204765382
1.2250221262
1.2296194504
1.2341836770
1.2386321958
1.2428907714
1.2468961521
1.2506013623
1.2539730253
1.2569931458
1.2596593808
1.2619810696
1.2639771788
1.2656729901
1.2670970681
1.2682790429
1.2692473523
1.2700281166
1.2706441620
1.2711144787
1.2714541889
1.2716744808
1.2717826859
1.2723508203
1.1231518864
1.1232766543
1.1231475602
1.1228917038
1.1225137602
1.1220210571
1.1214239011
1.1207357866
1.1199735456
1.1191573357
1.1183101313
1.1174568703
1.1166231196
1.1158329866
1.1151066643
1.1144577226
1.1138905643
1.1133993791
1.1129708869
1.1125956249
1.1122958131
1.1122395168
1.1922211025
1.1923415963
1.1927804378
1.1938588415
1.1955696042
1.1978664548
1.2006930164
1.2039924793
1.2077082426
1.2117811512
1.2161468181
1.2207339384
1.2254637239
1.2302516079
1.2350106495
1.2396555012
1.2441075451
1.2482993480
1.2521790054
1.2557097954
1.2588726040
1.2616621176
1.2640890414
1.2661734141
1.2679420569
1.2694253942
1.2706548849
1.2716608339
1.2724709384
1.2731094219
1.2735964257
1.2739479341
1.2741757848
1.2742877390
1.2749153528
1.1217487603
1.1218714275
1.1217545047
1.1215228164
1.1211807473
1.1207352363
1.1201961606
1.1195766254
1.1188931855
1.1181658915
1.1174178191
1.1166741703
1.1159607460
1.1153014423
1.1147149961
1.1142108142
1.1137839613
1.1134103677
1.1130449139
1.1126306898
1.1121408092
1.1121470264
1.1912392203
1.1914794893
1.1917451394
1.1928164780
1.1946264456
1.1970762733
1.2000774899
1.2035576050
1.2074542412
1.2117076203
1.2162549226
1.2210266062
1.2259448579
1.2309247520
1.2358776155
1.2407152152
1.2453550779
1.2497258908
1.2537715024
1.2574521119
1.2607463822
1.2636502915
1.2661739549
1.2683385332
1.2701724773
1.2717081232
1.2729789313
1.2740170587
1.2748518716
1.2755089119
1.2760095205
1.2763705335
1.2766044078
1.2767193225
1.2774148605
1.1205577575
1.1206791853
1.1205744924
1.1203671141
1.1200611963
1.1196633783
1.1191832473
1.1186337305
1.1180314177
1.1173967110
1.1167534582
1.1161280926
1.1155480327
1.1150388842
1.1146204212
1.1143006160
1.1140666423
1.1138716545
1.1136157975
1.1131245042
1.1121480889
1.1122314633
1.1902737582
1.1906477531
1.1904403983
1.1914863608
1.1934621015
1.1961411524
1.1993800954
1.2030870794
1.2071962189
1.2116503430
1.2163909412
1.2213523501
1.2264592147
1.2316273892
1.2367673090
1.2417885355
1.2466055181
1.2511436561
1.2553426859
1.2591604615
1.2625746821
1.2655809957
1.2681901089
1.2704245813
1.2723146187
1.2738945011
1.2751996498
1.2762640649
1.2771186535
1.2777903531
1.2783015249
1.2786698003
1.2789082273
1.2790253746
1.2797946779
1.1195846581
1.1197057779
1.1196129629
1.1194292202
1.1191585154
1.1188072848
1.1183849728
1.1179045474
1.1173829559
1.1168414349
1.1163053364
1.1158034674
1.1153666855
1.1150252498
1.1148047240
1.1147190994
1.1147580803
1.1148614435
1.1148604745
1.1143339413
1.1122381680
1.1124206245
1.1895696276
1.1901053629
1.1886353438
1.1896815276
1.1919822539
1.1950258303
1.1985941118
1.2025850314
1.2069401934
1.2116130435
1.2165544721
1.2217057978
1.2269961102
1.2323433751
1.2376581495
1.2428485952
1.2478268458
1.2525156920
1.2568515342
1.2607903258
1.2643092479
1.2674039725
1.2700859693
1.2723791865
1.2743156603
1.2759315459
1.2772641337
1.2783491317
1.2792188940
1.2799015716
1.2804204952
1.2807940151
1.2810356974
1.2811544628
1.2819999138
1.1188329271
1.1189546271
1.1188729267
1.1187113264
1.1184736687
1.1181662781
1.1177985771
1.1173837666
1.1169394182
1.1164879890
1.1160569520
1.1156785139
1.1153888279
1.1152263921
1.1152300981
1.1154370592
1.1158809538
1.1165940870
1.1176210525
1.1190696405
1.1212915025
1.1269582954
1.1417676724
1.1429781863
1.1734714716
1.1798014272
1.1831108579
1.1864015188
1.1899016409
1.1936680591
1.1977209963
1.2020657700
1.2066979804
1.2116009616
1.2167435321
1.2220780460
1.2275401564
1.2330512391
1.2385229323
1.2438628584
1.2489816182
1.2538001424
1.2582524910
1.2622933400
1.2658995938
1.2690672248
1.2718086136
1.2741491143
1.2761224361
1.2777664603
1.2791201405
1.2802206850
1.2811016992
1.2817923620
1.2823168322
1.2826940513
1.2829380201
1.2830579563
1.2839778487
1.1183040803
1.1184271131
1.1183553731
1.1182136325
1.1180056590
1.1177377358
1.1174193766
1.1170641156
1.1166902740
1.1163216798
1.1159880888
1.1157254268
1.1155753764
1.1155847256
1.1158048570
1.1162920524
1.1171099023
1.1183375625
1.1200899880
1.1225646721
1.1261555021
1.1320622503
1.1419213781
1.1430241308
1.1632473254
1.1723362425
1.1783349359
1.1833115525
1.1878821294
1.1923527154
1.1968931900
1.2015939452
1.2065000692
1.2116249124
1.2169559970
1.2224574295
1.2280720296
1.2337251470
1.2393301169
1.2447947197
1.2500287875
1.2549521251
1.2594976795
1.2636195072
1.2672943176
1.2705186100
1.2733057251
1.2756823174
1.2776835525
1.2793487421
1.2807181874
1.2818303004
1.2827196587
1.2834162412
1.2839448325
1.2843248182
1.2845705224
1.2846913871
1.2856795987
1.1179981537
1.1181230529
1.1180597674
1.1179348919
1.1177521532
1.1175178383
1.1172415878
1.1169373079
1.1166240677
1.1163269993
1.1160780066
1.1159162011
1.1158880936
1.1160472719
1.1164543009
1.1171777178
1.1182965588
1.1199070148
1.1221351607
1.1251595164
1.1292509442
1.1349040600
1.1424786708
1.1479354183
1.1602886724
1.1687036587
1.1753345512
1.1810754516
1.1863030774
1.1912896300
1.1962250447
1.2012296938
1.2063747628
1.2116931972
1.2171866487
1.2228288921
1.2285690228
1.2343361434
1.2400455036
1.2456055554
1.2509260344
1.2559263002
1.2605396465
1.2647198347
1.2684436076
1.2717081489
1.2745277075
1.2769299926
1.2789512753
1.2806318969
1.2820130968
1.2831340927
1.2840300998
1.2847316010
1.2852637734
1.2856462695
1.2858936085
1.2860153740
1.2870612919
1.1179139789
1.1180409722
1.1179843370
1.1178727287
1.1177098525
1.1175020156
1.1172589859
1.1169949965
1.1167297486
1.1164894419
1.1163076504
1.1162259683
1.1162944810
1.1165715914
1.1171236049
1.1180253936
1.1193617363
1.1212306939
1.1237487596
1.1270570681
1.1313265747
1.1367624899
1.1434067743
1.1498995166
1.1590433347
1.1667695211
1.1735109648
1.1795998733
1.1852104607
1.1905428689
1.1957661040
1.2010031554
1.2063350624
1.2118053816
1.2174247056
1.2231736069
1.2290059296
1.2348538692
1.2406345418
1.2462574531
1.2516328870
1.2566804561
1.2613348841
1.2655499889
1.2693026680
1.2725911988
1.2754306294
1.2778492839
1.2798840390
1.2815757557
1.2829661085
1.2840946628
1.2849968675
1.2857033770
1.2862394906
1.2866249274
1.2868742580
1.2869971133
1.2880858935
1.1180495342
1.1181784771
1.1181264593
1.1180240597
1.1178749686
1.1176855083
1.1174655371
1.1172295189
1.1169975876
1.1167966590
1.1166613990
1.1166350196
1.1167698746
1.1171273997
1.1177768612
1.1187955496
1.1202689770
1.1222914281
1.1249662014
1.1284035703
1.1327133562
1.1379832003
1.1441780792
1.1507683641
1.1585339992
1.1657942937
1.1725141893
1.1787558652
1.1845767563
1.1901204823
1.1955303495
1.2009231747
1.2063817283
1.2119540681
1.2176556837
1.2234712519
1.2293576970
1.2352494706
1.2410653714
1.2467162716
1.2521136645
1.2571782960
1.2618462321
1.2660728269
1.2698358119
1.2731336132
1.2759816654
1.2784086767
1.2804517152
1.2821516348
1.2835499942
1.2846861795
1.2855954213
1.2863081644
1.2868495267
1.2872390660
1.2874912385
1.2876156097
1.2887287519
1.1184021967
1.1185325142
1.1184829349
1.1183853907
1.1182435540
1.1180637416
1.1178558425
1.1176344222
1.1174198124
1.1172392502
1.1171278895
1.1171296665
1.1172980380
1.1176958351
1.1183935762
1.1194687499
1.1210059239
1.1230953865
1.1258311674
1.1293058745
1.1335999872
1.1387578144
1.1447290603
1.1512361684
1.1584457256
1.1654651567
1.1721541904
1.1784519880
1.1843668136
1.1900122829
1.1955160243
1.2009875802
1.2065085655
1.2121283612
1.2178643070
1.2237028309
1.2296023177
1.2354985897
1.2413118589
1.2469546028
1.2523401293
1.2573911045