<VTKFile type="UnstructuredGrid" version="0.1">
	<UnstructuredGrid>
		<Piece NumberOfPoints="13548" NumberOfCells="3387">
			<CellData>
				<DataArray type="Int32" Name="ghost" NumberOfComponents="1" Format="ascii">
1
1
1
1
1
1
1
1
1
1
1
1
1
1
1
1
1
1
1
1
1
1
1
1
1
1
1
1
1
1
1
1
1
1
1
1
1
1
1
1
1
1
1
1
1
1
1
1
1
1
1
1
1
1
1
1
1
1
0
0
0
0
0
0
0
0
0
0
0
0
0
0
0
0
0
0
0
0
1
1
0
0
0
0
0
0
0
0
0
0
0
0
0
0
0
0
0
0
0
0
0
0
0
0
0
0
0
0
0
0
0
0
0
1
1
0
0
0
0
0
0
0
0
0
0
0
0
0
0
0
0
0
0
0
0
1
1
0
0
0
0
0
0
0
0
0
0
0
0
0
0
0
0
0
0
0
0
0
0
0
0
0
0
0
0
0
0
0
0
0
1
1
0
0
0
0
0
0
0
0
0
0
0
0
0
0
0
0
0
0
0
0
1
1
0
0
0
0
0
0
0
0
0
0
0
0
0
0
0
0
0
0
0
0
0
0
0
0
0
0
0
0
0
0
0
0
0
1
1
0
0
0
0
0
0
0
0
0
0
0
0
0
0
0
0
0
0
0
0
1
1
0
0
0
0
0
0
0
0
0
0
0
0
0
0
0
0
0
0
0
0
0
0
0
0
0
0
0
0
0
0
0
0
0
1
1
0
0
0
0
0
0
0
0
0
0
0
0
0
0
0
0
0
0
0
0
1
1
0
0
0
0
0
0
0
0
0
0
0
0
0
0
0
0
0
0
0
0
0
0
0
0
0
0
0
0
0
0
0
0
0
1
1
0
0
0
0
0
0
0
0
0
0
0
0
0
0
0
0
0
0
0
0
1
1
0
0
0
0
0
0
0
0
0
0
0
0
0
0
0
0
0
0
0
0
0
0
0
0
0
0
0
0
0
0
0
0
0
1
1
0
0
0
0
0
0
0
0
0
0
0
0
0
0
0
0
0
0
0
0
1
1
0
0
0
0
0
0
0
0
0
0
0
0
0
0
0
0
0
0
0
0
0
0
0
0
0
0
0
0
0
0
0
0
0
1
1
0
0
0
0
0
0
0
0
0
0
0
0
0
0
0
0
0
0
0
0
1
1
0
0
0
0
0
0
0
0
0
0
0
0
0
0
0
0
0
0
0
0
0
0
0
0
0
0
0
0
0
0
0
0
0
1
1
0
0
0
0
0
0
0
0
0
0
0
0
0
0
0
0
0
0
0
0
1
1
0
0
0
0
0
0
0
0
0
0
0
0
0
0
0
0
0
0
0
0
0
0
0
0
0
0
0
0
0
0
0
0
0
1
1
0
0
0
0
0
0
0
0
0
0
0
0
0
0
0
0
0
0
0
0
1
1
0
0
0
0
0
0
0
0
0
0
0
0
0
0
0
0
0
0
0
0
0
0
0
0
0
0
0
0
0
0
0
0
0
1
1
0
0
0
0
0
0
0
0
0
0
0
0
0
0
0
0
0
0
0
0
1
1
0
0
0
0
0
0
0
0
0
0
0
0
0
0
0
0
0
0
0
0
0
0
0
0
0
0
0
0
0
0
0
0
0
1
1
0
0
0
0
0
0
0
0
0
0
0
0
0
0
0
0
0
0
0
0
1
1
0
0
0
0
0
0
0
0
0
0
0
0
0
0
0
0
0
0
0
0
0
0
0
0
0
0
0
0
0
0
0
0
0
1
1
0
0
0
0
0
0
0
0
0
0
0
0
0
0
0
0
0
0
0
0
1
1
0
0
0
0
0
0
0
0
0
0
0
0
0
0
0
0
0
0
0
0
0
0
0
0
0
0
0
0
0
0
0
0
0
1
1
0
0
0
0
0
0
0
0
0
0
0
0
0
0
0
0
0
0
0
0
1
1
0
0
0
0
0
0
0
0
0
0
0
0
0
0
0
0
0
0
0
0
0
0
0
0
0
0
0
0
0
0
0
0
0
1
1
0
0
0
0
0
0
0
0
0
0
0
0
0
0
0
0
0
0
0
0
1
1
0
0
0
0
0
0
0
0
0
0
0
0
0
0
0
0
0
0
0
0
0
0
0
0
0
0
0
0
0
0
0
0
0
1
1
0
0
0
0
0
0
0
0
0
0
0
0
0
0
0
0
0
0
0
0
1
1
0
0
0
0
0
0
0
0
0
0
0
0
0
0
0
0
0
0
0
0
0
0
0
0
0
0
0
0
0
0
0
0
0
1
1
0
0
0
0
0
0
0
0
0
0
0
0
0
0
0
0
0
0
0
0
1
1
0
0
0
0
0
0
0
0
0
0
0
0
0
0
0
0
0
0
0
0
0
0
0
0
0
0
0
0
0
0
0
0
0
1
1
0
0
0
0
0
0
0
0
0
0
0
0
0
0
0
0
0
0
0
0
1
1
0
0
0
0
0
0
0
0
0
0
0
0
0
0
0
0
0
0
0
0
0
0
0
0
0
0
0
0
0
0
0
0
0
1
1
0
0
0
0
0
0
0
0
0
0
0
0
0
0
0
0
0
0
0
0
1
1
0
0
0
0
0
0
0
0
0
0
0
0
0
0
0
0
0
0
0
0
0
0
0
0
0
0
0
0
0
0
0
0
0
1
1
0
0
0
0
0
0
0
0
0
0
0
0
0
0
0
0
0
0
0
0
1
1
0
0
0
0
0
0
0
0
0
0
0
0
0
0
0
0
0
0
0
0
0
0
0
0
0
0
0
0
0
0
0
0
0
1
1
0
0
0
0
0
0
0
0
0
0
0
0
0
0
0
0
0
0
0
0
1
1
0
0
0
0
0
0
0
0
0
0
0
0
0
0
0
0
0
0
0
0
0
0
0
0
0
0
0
0
0
0
0
0
0
1
1
0
0
0
0
0
0
0
0
0
0
0
0
0
0
0
0
0
0
0
0
1
1
0
0
0
0
0
0
0
0
0
0
0
0
0
0
0
0
0
0
0
0
0
0
0
0
0
0
0
0
0
0
0
0
0
1
1
0
0
0
0
0
0
0
0
0
0
0
0
0
0
0
0
0
0
0
0
1
1
0
0
0
0
0
0
0
0
0
0
0
0
0
0
0
0
0
0
0
0
0
0
0
0
0
0
0
0
0
0
0
0
0
1
1
0
0
0
0
0
0
0
0
0
0
0
0
0
0
0
0
0
0
0
0
1
1
0
0
0
0
0
0
0
0
0
0
0
0
0
0
0
0
0
0
0
0
0
0
0
0
0
0
0
0
0
0
0
0
0
1
1
0
0
0
0
0
0
0
0
0
0
0
0
0
0
0
0
0
0
0
0
0
1
1
0
0
0
0
0
0
0
0
0
0
0
0
0
0
0
0
0
0
0
0
0
0
0
0
0
0
0
0
0
0
0
0
0
0
1
1
0
0
0
0
0
0
0
0
0
0
0
0
0
0
0
0
0
0
0
0
0
0
0
0
0
0
0
0
0
0
0
0
0
0
0
0
0
0
0
0
0
0
0
0
0
0
0
0
0
0
0
0
0
0
0
0
0
1
1
0
0
0
0
0
0
0
0
0
0
0
0
0
0
0
0
0
0
0
0
0
0
0
0
0
0
0
0
0
0
0
0
0
0
0
0
0
0
0
0
0
0
0
0
0
0
0
0
0
0
0
0
0
0
0
0
0
1
1
0
0
0
0
0
0
0
0
0
0
0
0
0
0
0
0
0
0
0
0
0
0
0
0
0
0
0
0
0
0
0
0
0
0
0
0
0
0
0
0
0
0
0
0
0
0
0
0
0
0
0
0
0
0
0
0
0
1
1
0
0
0
0
0
0
0
0
0
0
0
0
0
0
0
0
0
0
0
0
0
0
0
0
0
0
0
0
0
0
0
0
0
0
0
0
0
0
0
0
0
0
0
0
0
0
0
0
0
0
0
0
0
0
0
0
0
1
1
0
0
0
0
0
0
0
0
0
0
0
0
0
0
0
0
0
0
0
0
0
0
0
0
0
0
0
0
0
0
0
0
0
0
0
0
0
0
0
0
0
0
0
0
0
0
0
0
0
0
0
0
0
0
0
0
0
1
1
0
0
0
0
0
0
0
0
0
0
0
0
0
0
0
0
0
0
0
0
0
0
0
0
0
0
0
0
0
0
0
0
0
0
0
0
0
0
0
0
0
0
0
0
0
0
0
0
0
0
0
0
0
0
0
0
0
1
1
0
0
0
0
0
0
0
0
0
0
0
0
0
0
0
0
0
0
0
0
0
0
0
0
0
0
0
0
0
0
0
0
0
0
0
0
0
0
0
0
0
0
0
0
0
0
0
0
0
0
0
0
0
0
0
0
0
1
1
0
0
0
0
0
0
0
0
0
0
0
0
0
0
0
0
0
0
0
0
0
0
0
0
0
0
0
0
0
0
0
0
0
0
0
0
0
0
0
0
0
0
0
0
0
0
0
0
0
0
0
0
0
0
0
0
0
1
1
0
0
0
0
0
0
0
0
0
0
0
0
0
0
0
0
0
0
0
0
0
0
0
0
0
0
0
0
0
0
0
0
0
0
0
0
0
0
0
0
0
0
0
0
0
0
0
0
0
0
0
0
0
0
0
0
0
1
1
0
0
0
0
0
0
0
0
0
0
0
0
0
0
0
0
0
0
0
0
0
0
0
0
0
0
0
0
0
0
0
0
0
0
0
0
0
0
0
0
0
0
0
0
0
0
0
0
0
0
0
0
0
0
0
0
0
1
1
0
0
0
0
0
0
0
0
0
0
0
0
0
0
0
0
0
0
0
0
0
1
1
0
0
0
0
0
0
0
0
0
0
0
0
0
0
0
0
0
0
0
0
0
0
0
0
0
0
0
0
0
0
0
0
0
0
1
1
0
0
0
0
0
0
0
0
0
0
0
0
0
0
0
0
0
0
0
0
1
1
0
0
0
0
0
0
0
0
0
0
0
0
0
0
0
0
0
0
0
0
0
0
0
0
0
0
0
0
0
0
0
0
0
1
1
0
0
0
0
0
0
0
0
0
0
0
0
0
0
0
0
0
0
0
0
1
1
0
0
0
0
0
0
0
0
0
0
0
0
0
0
0
0
0
0
0
0
0
0
0
0
0
0
0
0
0
0
0
0
0
1
1
0
0
0
0
0
0
0
0
0
0
0
0
0
0
0
0
0
0
0
0
1
1
0
0
0
0
0
0
0
0
0
0
0
0
0
0
0
0
0
0
0
0
0
0
0
0
0
0
0
0
0
0
0
0
0
1
1
0
0
0
0
0
0
0
0
0
0
0
0
0
0
0
0
0
0
0
0
1
1
0
0
0
0
0
0
0
0
0
0
0
0
0
0
0
0
0
0
0
0
0
0
0
0
0
0
0
0
0
0
0
0
0
1
1
0
0
0
0
0
0
0
0
0
0
0
0
0
0
0
0
0
0
0
0
1
1
0
0
0
0
0
0
0
0
0
0
0
0
0
0
0
0
0
0
0
0
0
0
0
0
0
0
0
0
0
0
0
0
0
1
1
0
0
0
0
0
0
0
0
0
0
0
0
0
0
0
0
0
0
0
0
1
1
0
0
0
0
0
0
0
0
0
0
0
0
0
0
0
0
0
0
0
0
0
0
0
0
0
0
0
0
0
0
0
0
0
1
1
0
0
0
0
0
0
0
0
0
0
0
0
0
0
0
0
0
0
0
0
1
1
0
0
0
0
0
0
0
0
0
0
0
0
0
0
0
0
0
0
0
0
0
0
0
0
0
0
0
0
0
0
0
0
0
1
1
0
0
0
0
0
0
0
0
0
0
0
0
0
0
0
0
0
0
0
0
1
1
0
0
0
0
0
0
0
0
0
0
0
0
0
0
0
0
0
0
0
0
0
0
0
0
0
0
0
0
0
0
0
0
0
1
1
0
0
0
0
0
0
0
0
0
0
0
0
0
0
0
0
0
0
0
0
1
1
0
0
0
0
0
0
0
0
0
0
0
0
0
0
0
0
0
0
0
0
0
0
0
0
0
0
0
0
0
0
0
0
0
1
1
0
0
0
0
0
0
0
0
0
0
0
0
0
0
0
0
0
0
0
0
1
1
0
0
0
0
0
0
0
0
0
0
0
0
0
0
0
0
0
0
0
0
0
0
0
0
0
0
0
0
0
0
0
0
0
1
1
0
0
0
0
0
0
0
0
0
0
0
0
0
0
0
0
0
0
0
0
1
1
0
0
0
0
0
0
0
0
0
0
0
0
0
0
0
0
0
0
0
0
0
0
0
0
0
0
0
0
0
0
0
0
0
1
1
0
0
0
0
0
0
0
0
0
0
0
0
0
0
0
0
0
0
0
0
1
1
0
0
0
0
0
0
0
0
0
0
0
0
0
0
0
0
0
0
0
0
0
0
0
0
0
0
0
0
0
0
0
0
0
1
1
0
0
0
0
0
0
0
0
0
0
0
0
0
0
0
0
0
0
0
0
1
1
0
0
0
0
0
0
0
0
0
0
0
0
0
0
0
0
0
0
0
0
0
0
0
0
0
0
0
0
0
0
0
0
0
1
1
0
0
0
0
0
0
0
0
0
0
0
0
0
0
0
0
0
0
0
0
1
1
0
0
0
0
0
0
0
0
0
0
0
0
0
0
0
0
0
0
0
0
0
0
0
0
0
0
0
0
0
0
0
0
0
1
1
0
0
0
0
0
0
0
0
0
0
0
0
0
0
0
0
0
0
0
0
1
1
0
0
0
0
0
0
0
0
0
0
0
0
0
0
0
0
0
0
0
0
0
0
0
0
0
0
0
0
0
0
0
0
0
1
1
0
0
0
0
0
0
0
0
0
0
0
0
0
0
0
0
0
0
0
0
1
1
0
0
0
0
0
0
0
0
0
0
0
0
0
0
0
0
0
0
0
0
0
0
0
0
0
0
0
0
0
0
0
0
0
1
1
0
0
0
0
0
0
0
0
0
0
0
0
0
0
0
0
0
0
0
0
1
1
0
0
0
0
0
0
0
0
0
0
0
0
0
0
0
0
0
0
0
0
0
0
0
0
0
0
0
0
0
0
0
0
0
1
1
0
0
0
0
0
0
0
0
0
0
0
0
0
0
0
0
0
0
0
0
1
1
0
0
0
0
0
0
0
0
0
0
0
0
0
0
0
0
0
0
0
0
0
0
0
0
0
0
0
0
0
0
0
0
0
1
1
0
0
0
0
0
0
0
0
0
0
0
0
0
0
0
0
0
0
0
0
1
1
0
0
0
0
0
0
0
0
0
0
0
0
0
0
0
0
0
0
0
0
0
0
0
0
0
0
0
0
0
0
0
0
0
1
1
0
0
0
0
0
0
0
0
0
0
0
0
0
0
0
0
0
0
0
0
1
1
0
0
0
0
0
0
0
0
0
0
0
0
0
0
0
0
0
0
0
0
0
0
0
0
0
0
0
0
0
0
0
0
0
1
1
0
0
0
0
0
0
0
0
0
0
0
0
0
0
0
0
0
0
0
0
1
1
0
0
0
0
0
0
0
0
0
0
0
0
0
0
0
0
0
0
0
0
0
0
0
0
0
0
0
0
0
0
0
0
0
1
1
1
1
1
1
1
1
1
1
1
1
1
1
1
1
1
1
1
1
1
1
1
1
1
1
1
1
1
1
1
1
1
1
1
1
1
1
1
1
1
1
1
1
1
1
1
1
1
1
1
1
1
1
1
1
1
1
				</DataArray>
				<DataArray type="Float64" Name="h" NumberOfComponents="1" Format="ascii">
1.5000000000
1.5000000000
1.5000000000
1.5000000000
1.5000000000
1.4999999812
1.4999998374
1.4999992243
1.4999973648
1.4999929210
1.4999840783
1.4999688977
1.4999458607
1.4999144205
1.4998753686
1.4998309103
1.4997844387
1.4997400777
1.4997021054
1.4996743590
1.4996597160
1.4996597160
1.0000007745
1.0000015933
1.0000014435
1.0000011815
1.0000008688
1.0000005692
1.0000003286
1.0000001650
1.0000000708
1.0000000254
1.0000000074
1.0000000017
1.0000000003
1.0000000000
1.0000000000
1.0000000000
1.0000000000
1.0000000000
1.0000000000
1.0000000000
1.0000000000
1.0000000000
1.0000000000
1.0000000000
1.0000000000
1.0000000000
1.0000000000
1.0000000000
1.0000000000
1.0000000000
1.0000000000
1.0000000000
1.0000000000
1.0000000000
1.0000000000
1.5000000000
1.5000000000
1.5000000000
1.5000000000
1.4999999835
1.4999998508
1.4999992585
1.4999973798
1.4999926903
1.4999829533
1.4999655265
1.4999379664
1.4998987524
1.4998478920
1.4997872152
1.4997203017
1.4996520758
1.4995881766
1.4995342434
1.4994952129
1.4994747306
1.4996597160
1.0000015933
1.0000031279
1.0000028604
1.0000023862
1.0000018073
1.0000012341
1.0000007527
1.0000004055
1.0000001903
1.0000000765
1.0000000258
1.0000000071
1.0000000015
1.0000000002
1.0000000000
1.0000000000
1.0000000000
1.0000000000
1.0000000000
1.0000000000
1.0000000000
1.0000000000
1.0000000000
1.0000000000
1.0000000000
1.0000000000
1.0000000000
1.0000000000
1.0000000000
1.0000000000
1.0000000000
1.0000000000
1.0000000000
1.0000000000
1.0000000000
1.5000000000
1.5000000000
1.5000000000
1.4999999786
1.4999998151
1.4999990950
1.4999968147
1.4999910814
1.4999790229
1.4999570724
1.4999216612
1.4998701275
1.4998015651
1.4997173489
1.4996212063
1.4995188712
1.4994174234
1.4993244620
1.4992472676
1.4991920303
1.4991632344
1.4994256673
1.0000047954
1.0000087367
1.0000080721
1.0000068760
1.0000053773
1.0000038370
1.0000024784
1.0000014350
1.0000007362
1.0000003302
1.0000001273
1.0000000413
1.0000000110
1.0000000023
1.0000000004
1.0000000000
1.0000000000
1.0000000000
1.0000000000
1.0000000000
1.0000000000
1.0000000000
1.0000000000
1.0000000000
1.0000000000
1.0000000000
1.0000000000
1.0000000000
1.0000000000
1.0000000000
1.0000000000
1.0000000000
1.0000000000
1.0000000000
1.0000000000
1.5000000000
1.5000000000
1.4999999743
1.4999997683
1.4999988229
1.4999957185
1.4999876596
1.4999702299
1.4999377143
1.4998840978
1.4998044868
1.4996964895
1.4995611266
1.4994030546
1.4992301145
1.4990524390
1.4988813283
1.4987280973
1.4986030614
1.4985146820
1.4984689428
1.4988876419
1.0000158575
1.0000271411
1.0000252848
1.0000219012
1.0000175700
1.0000129809
1.0000087680
1.0000053671
1.0000029470
1.0000014346
1.0000006106
1.0000002235
1.0000000689
1.0000000174
1.0000000035
1.0000000005
1.0000000000
1.0000000000
1.0000000000
1.0000000000
1.0000000000
1.0000000000
1.0000000000
1.0000000000
1.0000000000
1.0000000000
1.0000000000
1.0000000000
1.0000000000
1.0000000000
1.0000000000
1.0000000000
1.0000000000
1.0000000000
1.0000000000
1.5000000000
1.4999999711
1.4999997295
1.4999985745
1.4999946281
1.4999839889
1.4999601500
1.4999142100
1.4998361944
1.4997172310
1.4995518971
1.4993399046
1.4990866975
1.4988029284
1.4985031157
1.4982039807
1.4979227622
1.4976757454
1.4974771359
1.4973382079
1.4972667521
1.4979181036
1.0000483996
1.0000783476
1.0000735093
1.0000645923
1.0000529640
1.0000403144
1.0000282939
1.0000181631
1.0000105671
1.0000055145
1.0000025513
1.0000010324
1.0000003594
1.0000001055
1.0000000254
1.0000000048
1.0000000007
1.0000000001
1.0000000000
1.0000000000
1.0000000000
1.0000000000
1.0000000000
1.0000000000
1.0000000000
1.0000000000
1.0000000000
1.0000000000
1.0000000000
1.0000000000
1.0000000000
1.0000000000
1.0000000000
1.0000000000
1.0000000000
1.4999999595
1.4999996752
1.4999983907
1.4999937155
1.4999806191
1.4999501886
1.4998895217
1.4997832375
1.4996165207
1.4993788123
1.4990668371
1.4986859660
1.4982497637
1.4977781369
1.4972947744
1.4968246477
1.4963918633
1.4960180501
1.4957213333
1.4955156536
1.4954104352
1.4963577077
1.0001351676
1.0002077718
1.0001961993
1.0001746516
1.0001460651
1.0001142028
1.0000829512
1.0000555568
1.0000340211
1.0000188722
1.0000093867
1.0000041385
1.0000015961
1.0000005298
1.0000001483
1.0000000341
1.0000000062
1.0000000008
1.0000000001
1.0000000000
1.0000000000
1.0000000000
1.0000000000
1.0000000000
1.0000000000
1.0000000000
1.0000000000
1.0000000000
1.0000000000
1.0000000000
1.0000000000
1.0000000000
1.0000000000
1.0000000000
1.0000000000
1.4999995598
1.4999980062
1.4999931087
1.4999780864
1.4999417782
1.4998668043
1.4997311170
1.4995119187
1.4991910238
1.4987598187
1.4982220890
1.4975939147
1.4969012519
1.4961762545
1.4954534101
1.4947664210
1.4941459205
1.4936180727
1.4932039460
1.4929192327
1.4927742976
1.4940532810
1.0003461845
1.0005070242
1.0004816338
1.0004338929
1.0003695129
1.0002960852
1.0002218892
1.0001544226
1.0000990140
1.0000579929
1.0000307437
1.0000146052
1.0000061489
1.0000022646
1.0000007182
1.0000001922
1.0000000422
1.0000000073
1.0000000009
1.0000000001
1.0000000000
1.0000000000
1.0000000000
1.0000000000
1.0000000000
1.0000000000
1.0000000000
1.0000000000
1.0000000000
1.0000000000
1.0000000000
1.0000000000
1.0000000000
1.0000000000
1.0000000000
1.4999973841
1.4999913396
1.4999765578
1.4999362771
1.4998494598
1.4996868151
1.4994157219
1.4990076141
1.4984455439
1.4977292877
1.4968763741
1.4959191251
1.4948995195
1.4938635708
1.4928564937
1.4919194957
1.4910878872
1.4903903247
1.4898489129
1.4894795176
1.4892923357
1.4908999991
1.0008151262
1.0011409869
1.0010898857
1.0009928747
1.0008599471
1.0007049185
1.0005437186
1.0003919317
1.0002620308
1.0001611745
1.0000904425
1.0000458899
1.0000208533
1.0000083959
1.0000029574
1.0000008974
1.0000002299
1.0000000484
1.0000000081
1.0000000010
1.0000000001
1.0000000000
1.0000000000
1.0000000000
1.0000000000
1.0000000000
1.0000000000
1.0000000000
1.0000000000
1.0000000000
1.0000000000
1.0000000000
1.0000000000
1.0000000000
1.0000000000
1.4999889914
1.4999704575
1.4999332179
1.4998401218
1.4996570413
1.4993411026
1.4988508247
1.4981573514
1.4972530031
1.4961544511
1.4948999973
1.4935426167
1.4921419245
1.4907571038
1.4894418660
1.4882419289
1.4871940977
1.4863265636
1.4856599593
1.4852083865
1.4849805595
1.4868730447
1.0017682657
1.0023720536
1.0022778155
1.0020971633
1.0018456172
1.0015456420
1.0012247752
1.0009121617
1.0006337810
1.0004076474
1.0002407989
1.0001295757
1.0000629841
1.0000274031
1.0000105614
1.0000035618
1.0000010352
1.0000002542
1.0000000514
1.0000000082
1.0000000010
1.0000000001
1.0000000000
1.0000000000
1.0000000000
1.0000000000
1.0000000000
1.0000000000
1.0000000000
1.0000000000
1.0000000000
1.0000000000
1.0000000000
1.0000000000
1.0000000000
1.4999635829
1.4999162533
1.4998352385
1.4996454762
1.4992991324
1.4987420327
1.4979301715
1.4968439516
1.4954953737
1.4939267257
1.4922024822
1.4903979810
1.4885891606
1.4868450977
1.4852238240
1.4837712721
1.4825218235
1.4814998937
1.4807220365
1.4801986597
1.4799357268
1.4820372952
1.0035397062
1.0045615860
1.0044028109
1.0040953041
1.0036598767
1.0031285352
1.0025435338
1.0019536494
1.0014072304
1.0009433415
1.0005840227
1.0003314043
1.0001710666
1.0000796904
1.0000332125
1.0000122611
1.0000039617
1.0000011038
1.0000002600
1.0000000504
1.0000000077
1.0000000009
1.0000000001
1.0000000000
1.0000000000
1.0000000000
1.0000000000
1.0000000000
1.0000000000
1.0000000000
1.0000000000
1.0000000000
1.0000000000
1.0000000000
1.0000000000
1.4998997766
1.4997954744
1.4996395666
1.4992923419
1.4986963821
1.4977941492
1.4965504192
1.4949673065
1.4930871168
1.4909844101
1.4887518824
1.4864854277
1.4842730384
1.4821883673
1.4802884202
1.4786146025
1.4771949559
1.4760470848
1.4751812007
1.4746024140
1.4743128928
1.4765319962
1.0065451266
1.0081205348
1.0078774214
1.0074012152
1.0067145071
1.0058556154
1.0048806540
1.0038616822
1.0028788021
1.0020064441
1.0012975629
1.0007729823
1.0004212480
1.0002085492
1.0000931052
1.0000371766
1.0000131496
1.0000040721
1.0000010880
1.0000002460
1.0000000459
1.0000000068
1.0000000007
1.0000000001
1.0000000000
1.0000000000
1.0000000000
1.0000000000
1.0000000000
1.0000000000
1.0000000000
1.0000000000
1.0000000000
1.0000000000
1.0000000000
1.4997620405
1.4995585580
1.4992881832
1.4987094750
1.4977655127
1.4964092696
1.4946294473
1.4924629682
1.4899908773
1.4873228402
1.4845778180
1.4818671974
1.4792846863
1.4769022107
1.4747702890
1.4729214366
1.4713740960
1.4701367101
1.4692115085
1.4685971548
1.4682912603
1.4705369533
1.0111867014
1.0133907855
1.0130551394
1.0123889903
1.0114083318
1.0101476926
1.0086680683
1.0070607528
1.0054423002
1.0039376845
1.0026537804
1.0016540597
1.0009472725
1.0004953922
1.0002350938
1.0001005532
1.0000384601
1.0000130328
1.0000038685
1.0000009914
1.0000002152
1.0000000386
1.0000000055
1.0000000006
1.0000000000
1.0000000000
1.0000000000
1.0000000000
1.0000000000
1.0000000000
1.0000000000
1.0000000000
1.0000000000
1.0000000000
1.0000000000
1.4994998611
1.4991414489
1.4987124735
1.4978228798
1.4964318033
1.4945211140
1.4921200925
1.4893118441
1.4862207288
1.4829900926
1.4797597398
1.4766494241
1.4737514315
1.4711298461
1.4688239431
1.4668539568
1.4652264208
1.4639391210
1.4629852963
1.4623564319
1.4620450054
1.4642377436
1.0176888925
1.0204768415
1.0200636358
1.0192300690
1.0179724107
1.0163037073
1.0142699586
1.0119641584
1.0095309088
1.0071531982
1.0050169017
1.0032640518
1.0019576026
1.0010762486
1.0005395090
1.0002452196
1.0001004203
1.0000367744
1.0000119352
1.0000033948
1.0000008343
1.0000001739
1.0000000299
1.0000000041
1.0000000004
1.0000000000
1.0000000000
1.0000000000
1.0000000000
1.0000000000
1.0000000000
1.0000000000
1.0000000000
1.0000000000
1.0000000000
1.4990510958
1.4984719170
1.4978411742
1.4965658382
1.4946400224
1.4920946016
1.4890150624
1.4855386946
1.4818336569
1.4780720855
1.4744072000
1.4709593540
1.4678126999
1.4650183003
1.4626006069
1.4605652817
1.4589056220
1.4576079926
1.4566561366
1.4560338440
1.4557278661
1.4578024779
1.0259266625
1.0291093051
1.0286633073
1.0277430197
1.0263099923
1.0243341699
1.0218182707
1.0188244852
1.0154962432
1.0120610957
1.0087974662
1.0059665679
1.0037384561
1.0021527782
1.0011341653
1.0005442244
1.0002366548
1.0000927040
1.0000324807
1.0000100897
1.0000027485
1.0000006475
1.0000001295
1.0000000214
1.0000000028
1.0000000003
1.0000000000
1.0000000000
1.0000000000
1.0000000000
1.0000000000
1.0000000000
1.0000000000
1.0000000000
1.0000000000
1.4983491998
1.4974788843
1.4966096579
1.4948873705
1.4923603177
1.4891272147
1.4853423439
1.4812014841
1.4769138616
1.4726736963
1.4686397192
1.4649257218
1.4616020783
1.4587029075
1.4562353784
1.4541892789
1.4525440940
1.4512745710
1.4503547424
1.4497601865
1.4494709969
1.4513734118
1.0353649622
1.0386517487
1.0382435692
1.0373685626
1.0359409325
1.0338694546
1.0310864129
1.0275839061
1.0234554543
1.0189285582
1.0143560581
1.0101434289
1.0066302248
1.0039886112
1.0021997268
1.0011083388
1.0005082613
1.0002111641
1.0000790381
1.0000264676
1.0000078618
1.0000020494
1.0000004624
1.0000000887
1.0000000141
1.0000000018
1.0000000002
1.0000000000
1.0000000000
1.0000000000
1.0000000000
1.0000000000
1.0000000000
1.0000000000
1.0000000000
1.4973325014
1.4961022622
1.4949682625
1.4927574344
1.4895889382
1.4856444895
1.4811559060
1.4763786159
1.4715585453
1.4669049989
1.4625750853
1.4586700162
1.4552419894
1.4523052778
1.4498481752
1.4478439567
1.4462583068
1.4450546010
1.4441971865
1.4436527281
1.4433929796
1.4450745584
1.0451874408
1.0482820120
1.0479959032
1.0473232139
1.0461221187
1.0442319670
1.0415005911
1.0378207252
1.0331839950
1.0277477066
1.0218757559
1.0160984597
1.0109695747
1.0068824140
1.0039616612
1.0020868786
1.0010034274
1.0004389663
1.0001739802
1.0000621339
1.0000198596
1.0000056339
1.0000014036
1.0000003030
1.0000000557
1.0000000085
1.0000000010
1.0000000001
1.0000000000
1.0000000000
1.0000000000
1.0000000000
1.0000000000
1.0000000000
1.0000000000
1.4959529536
1.4943008105
1.4928878861
1.4901685991
1.4863452727
1.4816930525
1.4765262037
1.4711589903
1.4658693204
1.4608754493
1.4563269371
1.4523076100
1.4488479383
1.4459400675
1.4435522476
1.4416410717
1.4401589925
1.4390589019
1.4382959508
1.4378270297
1.4376125176
1.4390261835
1.0545555332
1.0572434049
1.0571682791
1.0568538380
1.0560932410
1.0546576600
1.0523155338
1.0488560968
1.0441384859
1.0381804858
1.0312594090
1.0239485085
1.0170044960
1.0111156980
1.0066643762
1.0036577717
1.0018352781
1.0008402094
1.0003499666
1.0001320820
1.0000449294
1.0000136846
1.0000037015
1.0000008800
1.0000001814
1.0000000319
1.0000000047
1.0000000005
1.0000000000
1.0000000000
1.0000000000
1.0000000000
1.0000000000
1.0000000000
1.0000000000
1.4941821345
1.4920563757
1.4903621527
1.4871348429
1.4826673924
1.4773340367
1.4715333617
1.4656365755
1.4599494246
1.4546941238
1.4500079355
1.4459531796
1.4425353671
1.4397222800
1.4374610911
1.4356919767
1.4343556354
1.4333966649
1.4327627703
1.4324004866
1.4322535871
1.4333546572
1.0628269902
1.0650030507
1.0652403975
1.0654356670
1.0652985092
1.0645362543
1.0628585998
1.0599755168
1.0556208134
1.0496366028
1.0421187396
1.0335541293
1.0248110058
1.0168863964
1.0105298350
1.0060059704
1.0031322621
1.0014928186
1.0006492037
1.0002569031
1.0000921343
1.0000297913
1.0000086287
1.0000022207
1.0000005027
1.0000000988
1.0000000166
1.0000000023
1.0000000003
1.0000000000
1.0000000000
1.0000000000
1.0000000000
1.0000000000
1.0000000000
1.4920141367
1.4893751541
1.4874074746
1.4836899749
1.4786092518
1.4726403507
1.4662657225
1.4599112489
1.4539070232
1.4484752244
1.4437366105
1.4397279412
1.4364261586
1.4337720628
1.4316906855
1.4301067525
1.4289523784
1.4281686888
1.4277007366
1.4274858466
1.4274428921
1.4281954113
1.0695932497
1.0712301772
1.0719297955
1.0728113292
1.0734629895
1.0735298031
1.0726921129
1.0706258315
1.0669830456
1.0614434562
1.0538689700
1.0445292751
1.0342469165
1.0242486969
1.0157094874
1.0092931153
1.0050214944
1.0024803057
1.0011198199
1.0004614489
1.0001730618
1.0000588367
1.0000180391
1.0000049558
1.0000012104
1.0000002602
1.0000000486
1.0000000078
1.0000000010
1.0000000001
1.0000000000
1.0000000000
1.0000000000
1.0000000000
1.0000000000
1.4894659136
1.4862870328
1.4840621531
1.4798865360
1.4742399615
1.4676968972
1.4608216021
1.4540920277
1.4478595813
1.4423427074
1.4376413344
1.4337619028
1.4306482606
1.4282108796
1.4263515423
1.4249816531
1.4240307146
1.4234460466
1.4231813416
1.4231716662
1.4233003650
1.4236872195
1.0745447810
1.0756425698
1.0770818589
1.0789131743
1.0805422737
1.0815542120
1.0816378758
1.0804936417
1.0777593855
1.0730084051
1.0658750852
1.0563261309
1.0449646186
1.0330815151
1.0222433212
1.0136253033
1.0076080901
1.0038798745
1.0018095713
1.0007718064
1.0003005383
1.0001065317
1.0000342346
1.0000099224
1.0000025777
1.0000005955
1.0000001212
1.0000000214
1.0000000032
1.0000000004
1.0000000000
1.0000000000
1.0000000000
1.0000000000
1.0000000000
1.4865761142
1.4828441490
1.4803852010
1.4757952237
1.4696439605
1.4626016112
1.4553108213
1.4482986284
1.4419345608
1.4364293159
1.4318567882
1.4281870916
1.4253251047
1.4231466395
1.4215290456
1.4203739279
1.4196180992
1.4192325402
1.4192039046
1.4194884626
1.4199305759
1.4199634782
1.0772522303
1.0778039504
1.0805538243
1.0837825778
1.0866499410
1.0887095927
1.0897204487
1.0894802719
1.0876921960
1.0839028809
1.0775740503
1.0683490409
1.0564743307
1.0430963173
1.0300382916
1.0190271751
1.0109552219
1.0057494240
1.0027581163
1.0012110787
1.0004865388
1.0001784903
1.0000596050
1.0000180429
1.0000049259
1.0000012053
1.0000002623
1.0000000503
1.0000000084
1.0000000012
1.0000000001
1.0000000000
1.0000000000
1.0000000000
1.0000000000
1.4834043174
1.4791203209
1.4764561497
1.4715052518
1.4649219218
1.4574664252
1.4498551652
1.4426605249
1.4362663789
1.4308707267
1.4265149356
1.4231251984
1.4205599570
1.4186547809
1.4172607385
1.4162739015
1.4156521108
1.4154183009
1.4156405941
1.4163636004
1.4174407324
1.4171654297
1.0768964667
1.0768779908
1.0821678996
1.0875729065
1.0920456125
1.0952388600
1.0971051897
1.0976379840
1.0966899440
1.0938648747
1.0885307729
1.0800435596
1.0682223096
1.0538731103
1.0388669585
1.0254254999
1.0150676613
1.0081154925
1.0039892287
1.0017947720
1.0007396872
1.0002790022
1.0000960868
1.0000301121
1.0000085510
1.0000021891
1.0000005021
1.0000001024
1.0000000184
1.0000000029
1.0000000004
1.0000000000
1.0000000000
1.0000000000
1.0000000000
1.4800306025
1.4752106061
1.4723745380
1.4671236720
1.4601895155
1.4524150132
1.4445843713
1.4373106490
1.4309873260
1.4257936468
1.4217305887
1.4186713228
1.4164188106
1.4147609358
1.4135183802
1.4125833998
1.4119483984
1.4117266113
1.4121561855
1.4135450457
1.4160229044
1.4155158506
1.0719250530
1.0712966448
1.0818306005
1.0907119221
1.0972243983
1.1015450105
1.1040696595
1.1051194092
1.1047752726
1.1027671400
1.0984462277
1.0909483908
1.0796614695
1.0649114463
1.0483835207
1.0326431005
1.0198801718
1.0109635219
1.0055041570
1.0025266798
1.0010629020
1.0004097992
1.0001445756
1.0000465449
1.0000136258
1.0000036114
1.0000008621
1.0000001842
1.0000000350
1.0000000058
1.0000000008
1.0000000001
1.0000000000
1.0000000000
1.0000000000
1.4765547125
1.4712297952
1.4682579012
1.4627723868
1.4555730676
1.4475766131
1.4396278143
1.4323746550
1.4262145632
1.4213010644
1.4175860347
1.4148796621
1.4129190543
1.4114342944
1.4102057480
1.4091131449
1.4081828102
1.4076508079
1.4080626239
1.4104083560
1.4161568042
1.4155126848
1.0603167990
1.0590369242
1.0804001941
1.0944471943
1.1031449413
1.1082497061
1.1109911149
1.1121400341
1.1120424866
1.1105831034
1.1071474434
1.1007225515
1.0903096783
1.0756892379
1.0581554508
1.0404037799
1.0252512764
1.0142308845
1.0072767397
1.0033959047
1.0014516941
1.0005691383
1.0002044673
1.0000671651
1.0000201119
1.0000054687
1.0000013442
1.0000002971
1.0000000587
1.0000000103
1.0000000016
1.0000000002
1.0000000000
1.0000000000
1.0000000000
1.4730942652
1.4673094515
1.4642381693
1.4585834504
1.4512034050
1.4430782865
1.4351051123
1.4279601548
1.4220385638
1.4174610834
1.4141221394
1.4117594709
1.4100336838
1.4086035040
1.4071883235
1.4056212694
1.4039133208
1.4023870012
1.4020259156
1.4054050651
1.4190491707
1.4183637843
1.0481386066
1.0462980599
1.0842517382
1.1024787631
1.1116584377
1.1162323991
1.1182901423
1.1189138148
1.1186038400
1.1173463613
1.1145654951
1.1091528588
1.0997917253
1.0857215819
1.0677076822
1.0483487387
1.0309625493
1.0178021531
1.0092499079
1.0043750087
1.0018932871
1.0007513856
1.0002734570
1.0000911099
1.0000277162
1.0000076715
1.0000019240
1.0000004352
1.0000000883
1.0000000159
1.0000000025
1.0000000004
1.0000000000
1.0000000000
1.0000000000
1.4697801099
1.4635918334
1.4604551423
1.4546917675
1.4472076548
1.4390358343
1.4311164791
1.4241470555
1.4185144535
1.4143008088
1.4113370093
1.4092817510
1.4077103090
1.4061931891
1.4043478328
1.4018550159
1.3984329450
1.3937473771
1.3871757717
1.3771181213
1.3587321760
1.3035034916
1.2198948237
1.2169768910
1.1545014373
1.1231298501
1.1213171295
1.1235491131
1.1254376302
1.1262570434
1.1261628893
1.1254977383
1.1245010491
1.1230968444
1.1207032707
1.1161460220
1.1078645340
1.0946147282
1.0765784692
1.0560692414
1.0367282226
1.0215088350
1.0113341697
1.0054194014
1.0023666213
1.0009471725
1.0003476589
1.0001168896
1.0000359144
1.0000100513
1.0000025523
1.0000005854
1.0000001206
1.0000000222
1.0000000036
1.0000000005
1.0000000001
1.0000000000
1.0000000000
1.4667488579
1.4602214119
1.4570480945
1.4512268951
1.4437013660
1.4355465042
1.4277364278
1.4209829703
1.4156601290
1.4118086222
1.4091948590
1.4073997358
1.4059169834
1.4042355812
1.4018834781
1.3984202763
1.3933692399
1.3860646123
1.3753581148
1.3590473676
1.3327868987
1.2850051516
1.2184814151
1.2154607224
1.1816539935
1.1561352333
1.1453962248
1.1406598943
1.1378983871
1.1356334474
1.1334629816
1.1314085611
1.1295629967
1.1278152269
1.1255950496
1.1217045892
1.1144187865
1.1021013241
1.0843746576
1.0631529679
1.0422186672
1.0251369610
1.0134095625
1.0064683091
1.0028432183
1.0011440602
1.0004220107
1.0001425916
1.0000440389
1.0000123937
1.0000031661
1.0000007309
1.0000001517
1.0000000281
1.0000000046
1.0000000007
1.0000000001
1.0000000000
1.0000000000
1.4641338839
1.4573357068
1.4541473209
1.4483058511
1.4407830095
1.4326855246
1.4250127220
1.4184849430
1.4134608817
1.4099410250
1.4076321512
1.4060461049
1.4046082123
1.4027454439
1.3999282579
1.3956562612
1.3893878758
1.3804126058
1.3676732284
1.3495633976
1.3238341950
1.2872175523
1.2444369179
1.2238975588
1.1980784899
1.1764767028
1.1627904284
1.1542061376
1.1482535530
1.1435879350
1.1396589409
1.1363464191
1.1336685875
1.1315055722
1.1293149572
1.1259072764
1.1194604386
1.1080463789
1.0908079958
1.0692310273
1.0470948771
1.0284443890
1.0153328651
1.0074480082
1.0032889516
1.0013275807
1.0004908472
1.0001661623
1.0000514012
1.0000144860
1.0000037051
1.0000008562
1.0000001778
1.0000000330
1.0000000054
1.0000000008
1.0000000001
1.0000000000
1.0000000000
1.4620553240
1.4550558571
1.4518658158
1.4460267622
1.4385302097
1.4305053586
1.4229689598
1.4166455139
1.4118787391
1.4086342676
1.4065693442
1.4051407681
1.4037227876
1.4017015035
1.3985182774
1.3936562370
1.3865805864
1.3766488848
1.3630316086
1.3447122444
1.3207009365
1.2905188335
1.2577493312
1.2332397165
1.2097492002
1.1897432123
1.1748599436
1.1641139601
1.1560679973
1.1496812323
1.1444182070
1.1401082251
1.1367365448
1.1341889281
1.1319565074
1.1288746605
1.1230728765
1.1124244769
1.0957034000
1.0740125618
1.0510469688
1.0311874865
1.0169517876
1.0082785051
1.0036671045
1.0014826452
1.0005485437
1.0001856884
1.0000574067
1.0000161596
1.0000041259
1.0000009511
1.0000001969
1.0000000364
1.0000000059
1.0000000009
1.0000000001
1.0000000000
1.0000000000
1.4606113281
1.4534790743
1.4502930879
1.4444651092
1.4369992032
1.4290388780
1.4216117049
1.4154437403
1.4108668372
1.4078209947
1.4059281682
1.4046073435
1.4031997479
1.4010683722
1.3976434981
1.3924117027
1.3848660781
1.3744430438
1.3604975278
1.3423855866
1.3197374370
1.2929717336
1.2646816642
1.2398435326
1.2172370580
1.1978386112
1.1823981351
1.1704810701
1.1611822994
1.1537015615
1.1475600186
1.1425768072
1.1387242453
1.1358964148
1.1336125862
1.1307341430
1.1253713413
1.1152772594
1.0989789707
1.0772965551
1.0538251976
1.0331512102
1.0181245958
1.0088836294
1.0039428051
1.0015952872
1.0005901456
1.0001996104
1.0000616227
1.0000173107
1.0000044076
1.0000010125
1.0000002087
1.0000000383
1.0000000062
1.0000000009
1.0000000001
1.0000000000
1.0000000000
1.4598714142
1.4526733626
1.4494911676
1.4436720350
1.4362261956
1.4283042113
1.4209389235
1.4148568816
1.4103835146
1.4074453822
1.4056463192
1.4043864491
1.4029914295
1.4008147618
1.3972845108
1.3918935428
1.3841543145
1.3735471703
1.3595172357
1.3415846856
1.3196221263
1.2943047310
1.2677540928
1.2431357149
1.2208608937
1.2016372585
1.1859262260
1.1734618635
1.1635637032
1.1555549796
1.1489923290
1.1436908297
1.1396141416
1.1366588704
1.1343589258
1.1315915691
1.1264618537
1.1166668905
1.1006104964
1.0789633729
1.0552574859
1.0341756829