<VTKFile type="UnstructuredGrid" version="0.1">
	<UnstructuredGrid>
		<Piece NumberOfPoints="13548" NumberOfCells="3387">
			<CellData>
				<DataArray type="Int32" Name="ghost" NumberOfComponents="1" Format="ascii">
1
1
1
1
1
1
1
1
1
1
1
1
1
1
1
1
1
1
1
1
1
1
1
1
1
1
1
1
1
1
1
1
1
1
1
1
1
1
1
1
1
1
1
1
1
1
1
1
1
1
1
1
1
1
1
1
1
1
0
0
0
0
0
0
0
0
0
0
0
0
0
0
0
0
0
0
0
0
1
1
0
0
0
0
0
0
0
0
0
0
0
0
0
0
0
0
0
0
0
0
0
0
0
0
0
0
0
0
0
0
0
0
0
1
1
0
0
0
0
0
0
0
0
0
0
0
0
0
0
0
0
0
0
0
0
1
1
0
0
0
0
0
0
0
0
0
0
0
0
0
0
0
0
0
0
0
0
0
0
0
0
0
0
0
0
0
0
0
0
0
1
1
0
0
0
0
0
0
0
0
0
0
0
0
0
0
0
0
0
0
0
0
1
1
0
0
0
0
0
0
0
0
0
0
0
0
0
0
0
0
0
0
0
0
0
0
0
0
0
0
0
0
0
0
0
0
0
1
1
0
0
0
0
0
0
0
0
0
0
0
0
0
0
0
0
0
0
0
0
1
1
0
0
0
0
0
0
0
0
0
0
0
0
0
0
0
0
0
0
0
0
0
0
0
0
0
0
0
0
0
0
0
0
0
1
1
0
0
0
0
0
0
0
0
0
0
0
0
0
0
0
0
0
0
0
0
1
1
0
0
0
0
0
0
0
0
0
0
0
0
0
0
0
0
0
0
0
0
0
0
0
0
0
0
0
0
0
0
0
0
0
1
1
0
0
0
0
0
0
0
0
0
0
0
0
0
0
0
0
0
0
0
0
1
1
0
0
0
0
0
0
0
0
0
0
0
0
0
0
0
0
0
0
0
0
0
0
0
0
0
0
0
0
0
0
0
0
0
1
1
0
0
0
0
0
0
0
0
0
0
0
0
0
0
0
0
0
0
0
0
1
1
0
0
0
0
0
0
0
0
0
0
0
0
0
0
0
0
0
0
0
0
0
0
0
0
0
0
0
0
0
0
0
0
0
1
1
0
0
0
0
0
0
0
0
0
0
0
0
0
0
0
0
0
0
0
0
1
1
0
0
0
0
0
0
0
0
0
0
0
0
0
0
0
0
0
0
0
0
0
0
0
0
0
0
0
0
0
0
0
0
0
1
1
0
0
0
0
0
0
0
0
0
0
0
0
0
0
0
0
0
0
0
0
1
1
0
0
0
0
0
0
0
0
0
0
0
0
0
0
0
0
0
0
0
0
0
0
0
0
0
0
0
0
0
0
0
0
0
1
1
0
0
0
0
0
0
0
0
0
0
0
0
0
0
0
0
0
0
0
0
1
1
0
0
0
0
0
0
0
0
0
0
0
0
0
0
0
0
0
0
0
0
0
0
0
0
0
0
0
0
0
0
0
0
0
1
1
0
0
0
0
0
0
0
0
0
0
0
0
0
0
0
0
0
0
0
0
1
1
0
0
0
0
0
0
0
0
0
0
0
0
0
0
0
0
0
0
0
0
0
0
0
0
0
0
0
0
0
0
0
0
0
1
1
0
0
0
0
0
0
0
0
0
0
0
0
0
0
0
0
0
0
0
0
1
1
0
0
0
0
0
0
0
0
0
0
0
0
0
0
0
0
0
0
0
0
0
0
0
0
0
0
0
0
0
0
0
0
0
1
1
0
0
0
0
0
0
0
0
0
0
0
0
0
0
0
0
0
0
0
0
1
1
0
0
0
0
0
0
0
0
0
0
0
0
0
0
0
0
0
0
0
0
0
0
0
0
0
0
0
0
0
0
0
0
0
1
1
0
0
0
0
0
0
0
0
0
0
0
0
0
0
0
0
0
0
0
0
1
1
0
0
0
0
0
0
0
0
0
0
0
0
0
0
0
0
0
0
0
0
0
0
0
0
0
0
0
0
0
0
0
0
0
1
1
0
0
0
0
0
0
0
0
0
0
0
0
0
0
0
0
0
0
0
0
1
1
0
0
0
0
0
0
0
0
0
0
0
0
0
0
0
0
0
0
0
0
0
0
0
0
0
0
0
0
0
0
0
0
0
1
1
0
0
0
0
0
0
0
0
0
0
0
0
0
0
0
0
0
0
0
0
1
1
0
0
0
0
0
0
0
0
0
0
0
0
0
0
0
0
0
0
0
0
0
0
0
0
0
0
0
0
0
0
0
0
0
1
1
0
0
0
0
0
0
0
0
0
0
0
0
0
0
0
0
0
0
0
0
1
1
0
0
0
0
0
0
0
0
0
0
0
0
0
0
0
0
0
0
0
0
0
0
0
0
0
0
0
0
0
0
0
0
0
1
1
0
0
0
0
0
0
0
0
0
0
0
0
0
0
0
0
0
0
0
0
1
1
0
0
0
0
0
0
0
0
0
0
0
0
0
0
0
0
0
0
0
0
0
0
0
0
0
0
0
0
0
0
0
0
0
1
1
0
0
0
0
0
0
0
0
0
0
0
0
0
0
0
0
0
0
0
0
1
1
0
0
0
0
0
0
0
0
0
0
0
0
0
0
0
0
0
0
0
0
0
0
0
0
0
0
0
0
0
0
0
0
0
1
1
0
0
0
0
0
0
0
0
0
0
0
0
0
0
0
0
0
0
0
0
1
1
0
0
0
0
0
0
0
0
0
0
0
0
0
0
0
0
0
0
0
0
0
0
0
0
0
0
0
0
0
0
0
0
0
1
1
0
0
0
0
0
0
0
0
0
0
0
0
0
0
0
0
0
0
0
0
1
1
0
0
0
0
0
0
0
0
0
0
0
0
0
0
0
0
0
0
0
0
0
0
0
0
0
0
0
0
0
0
0
0
0
1
1
0
0
0
0
0
0
0
0
0
0
0
0
0
0
0
0
0
0
0
0
1
1
0
0
0
0
0
0
0
0
0
0
0
0
0
0
0
0
0
0
0
0
0
0
0
0
0
0
0
0
0
0
0
0
0
1
1
0
0
0
0
0
0
0
0
0
0
0
0
0
0
0
0
0
0
0
0
1
1
0
0
0
0
0
0
0
0
0
0
0
0
0
0
0
0
0
0
0
0
0
0
0
0
0
0
0
0
0
0
0
0
0
1
1
0
0
0
0
0
0
0
0
0
0
0
0
0
0
0
0
0
0
0
0
1
1
0
0
0
0
0
0
0
0
0
0
0
0
0
0
0
0
0
0
0
0
0
0
0
0
0
0
0
0
0
0
0
0
0
1
1
0
0
0
0
0
0
0
0
0
0
0
0
0
0
0
0
0
0
0
0
0
1
1
0
0
0
0
0
0
0
0
0
0
0
0
0
0
0
0
0
0
0
0
0
0
0
0
0
0
0
0
0
0
0
0
0
0
1
1
0
0
0
0
0
0
0
0
0
0
0
0
0
0
0
0
0
0
0
0
0
0
0
0
0
0
0
0
0
0
0
0
0
0
0
0
0
0
0
0
0
0
0
0
0
0
0
0
0
0
0
0
0
0
0
0
0
1
1
0
0
0
0
0
0
0
0
0
0
0
0
0
0
0
0
0
0
0
0
0
0
0
0
0
0
0
0
0
0
0
0
0
0
0
0
0
0
0
0
0
0
0
0
0
0
0
0
0
0
0
0
0
0
0
0
0
1
1
0
0
0
0
0
0
0
0
0
0
0
0
0
0
0
0
0
0
0
0
0
0
0
0
0
0
0
0
0
0
0
0
0
0
0
0
0
0
0
0
0
0
0
0
0
0
0
0
0
0
0
0
0
0
0
0
0
1
1
0
0
0
0
0
0
0
0
0
0
0
0
0
0
0
0
0
0
0
0
0
0
0
0
0
0
0
0
0
0
0
0
0
0
0
0
0
0
0
0
0
0
0
0
0
0
0
0
0
0
0
0
0
0
0
0
0
1
1
0
0
0
0
0
0
0
0
0
0
0
0
0
0
0
0
0
0
0
0
0
0
0
0
0
0
0
0
0
0
0
0
0
0
0
0
0
0
0
0
0
0
0
0
0
0
0
0
0
0
0
0
0
0
0
0
0
1
1
0
0
0
0
0
0
0
0
0
0
0
0
0
0
0
0
0
0
0
0
0
0
0
0
0
0
0
0
0
0
0
0
0
0
0
0
0
0
0
0
0
0
0
0
0
0
0
0
0
0
0
0
0
0
0
0
0
1
1
0
0
0
0
0
0
0
0
0
0
0
0
0
0
0
0
0
0
0
0
0
0
0
0
0
0
0
0
0
0
0
0
0
0
0
0
0
0
0
0
0
0
0
0
0
0
0
0
0
0
0
0
0
0
0
0
0
1
1
0
0
0
0
0
0
0
0
0
0
0
0
0
0
0
0
0
0
0
0
0
0
0
0
0
0
0
0
0
0
0
0
0
0
0
0
0
0
0
0
0
0
0
0
0
0
0
0
0
0
0
0
0
0
0
0
0
1
1
0
0
0
0
0
0
0
0
0
0
0
0
0
0
0
0
0
0
0
0
0
0
0
0
0
0
0
0
0
0
0
0
0
0
0
0
0
0
0
0
0
0
0
0
0
0
0
0
0
0
0
0
0
0
0
0
0
1
1
0
0
0
0
0
0
0
0
0
0
0
0
0
0
0
0
0
0
0
0
0
0
0
0
0
0
0
0
0
0
0
0
0
0
0
0
0
0
0
0
0
0
0
0
0
0
0
0
0
0
0
0
0
0
0
0
0
1
1
0
0
0
0
0
0
0
0
0
0
0
0
0
0
0
0
0
0
0
0
0
1
1
0
0
0
0
0
0
0
0
0
0
0
0
0
0
0
0
0
0
0
0
0
0
0
0
0
0
0
0
0
0
0
0
0
0
1
1
0
0
0
0
0
0
0
0
0
0
0
0
0
0
0
0
0
0
0
0
1
1
0
0
0
0
0
0
0
0
0
0
0
0
0
0
0
0
0
0
0
0
0
0
0
0
0
0
0
0
0
0
0
0
0
1
1
0
0
0
0
0
0
0
0
0
0
0
0
0
0
0
0
0
0
0
0
1
1
0
0
0
0
0
0
0
0
0
0
0
0
0
0
0
0
0
0
0
0
0
0
0
0
0
0
0
0
0
0
0
0
0
1
1
0
0
0
0
0
0
0
0
0
0
0
0
0
0
0
0
0
0
0
0
1
1
0
0
0
0
0
0
0
0
0
0
0
0
0
0
0
0
0
0
0
0
0
0
0
0
0
0
0
0
0
0
0
0
0
1
1
0
0
0
0
0
0
0
0
0
0
0
0
0
0
0
0
0
0
0
0
1
1
0
0
0
0
0
0
0
0
0
0
0
0
0
0
0
0
0
0
0
0
0
0
0
0
0
0
0
0
0
0
0
0
0
1
1
0
0
0
0
0
0
0
0
0
0
0
0
0
0
0
0
0
0
0
0
1
1
0
0
0
0
0
0
0
0
0
0
0
0
0
0
0
0
0
0
0
0
0
0
0
0
0
0
0
0
0
0
0
0
0
1
1
0
0
0
0
0
0
0
0
0
0
0
0
0
0
0
0
0
0
0
0
1
1
0
0
0
0
0
0
0
0
0
0
0
0
0
0
0
0
0
0
0
0
0
0
0
0
0
0
0
0
0
0
0
0
0
1
1
0
0
0
0
0
0
0
0
0
0
0
0
0
0
0
0
0
0
0
0
1
1
0
0
0
0
0
0
0
0
0
0
0
0
0
0
0
0
0
0
0
0
0
0
0
0
0
0
0
0
0
0
0
0
0
1
1
0
0
0
0
0
0
0
0
0
0
0
0
0
0
0
0
0
0
0
0
1
1
0
0
0
0
0
0
0
0
0
0
0
0
0
0
0
0
0
0
0
0
0
0
0
0
0
0
0
0
0
0
0
0
0
1
1
0
0
0
0
0
0
0
0
0
0
0
0
0
0
0
0
0
0
0
0
1
1
0
0
0
0
0
0
0
0
0
0
0
0
0
0
0
0
0
0
0
0
0
0
0
0
0
0
0
0
0
0
0
0
0
1
1
0
0
0
0
0
0
0
0
0
0
0
0
0
0
0
0
0
0
0
0
1
1
0
0
0
0
0
0
0
0
0
0
0
0
0
0
0
0
0
0
0
0
0
0
0
0
0
0
0
0
0
0
0
0
0
1
1
0
0
0
0
0
0
0
0
0
0
0
0
0
0
0
0
0
0
0
0
1
1
0
0
0
0
0
0
0
0
0
0
0
0
0
0
0
0
0
0
0
0
0
0
0
0
0
0
0
0
0
0
0
0
0
1
1
0
0
0
0
0
0
0
0
0
0
0
0
0
0
0
0
0
0
0
0
1
1
0
0
0
0
0
0
0
0
0
0
0
0
0
0
0
0
0
0
0
0
0
0
0
0
0
0
0
0
0
0
0
0
0
1
1
0
0
0
0
0
0
0
0
0
0
0
0
0
0
0
0
0
0
0
0
1
1
0
0
0
0
0
0
0
0
0
0
0
0
0
0
0
0
0
0
0
0
0
0
0
0
0
0
0
0
0
0
0
0
0
1
1
0
0
0
0
0
0
0
0
0
0
0
0
0
0
0
0
0
0
0
0
1
1
0
0
0
0
0
0
0
0
0
0
0
0
0
0
0
0
0
0
0
0
0
0
0
0
0
0
0
0
0
0
0
0
0
1
1
0
0
0
0
0
0
0
0
0
0
0
0
0
0
0
0
0
0
0
0
1
1
0
0
0
0
0
0
0
0
0
0
0
0
0
0
0
0
0
0
0
0
0
0
0
0
0
0
0
0
0
0
0
0
0
1
1
0
0
0
0
0
0
0
0
0
0
0
0
0
0
0
0
0
0
0
0
1
1
0
0
0
0
0
0
0
0
0
0
0
0
0
0
0
0
0
0
0
0
0
0
0
0
0
0
0
0
0
0
0
0
0
1
1
0
0
0
0
0
0
0
0
0
0
0
0
0
0
0
0
0
0
0
0
1
1
0
0
0
0
0
0
0
0
0
0
0
0
0
0
0
0
0
0
0
0
0
0
0
0
0
0
0
0
0
0
0
0
0
1
1
0
0
0
0
0
0
0
0
0
0
0
0
0
0
0
0
0
0
0
0
1
1
0
0
0
0
0
0
0
0
0
0
0
0
0
0
0
0
0
0
0
0
0
0
0
0
0
0
0
0
0
0
0
0
0
1
1
0
0
0
0
0
0
0
0
0
0
0
0
0
0
0
0
0
0
0
0
1
1
0
0
0
0
0
0
0
0
0
0
0
0
0
0
0
0
0
0
0
0
0
0
0
0
0
0
0
0
0
0
0
0
0
1
1
0
0
0
0
0
0
0
0
0
0
0
0
0
0
0
0
0
0
0
0
1
1
0
0
0
0
0
0
0
0
0
0
0
0
0
0
0
0
0
0
0
0
0
0
0
0
0
0
0
0
0
0
0
0
0
1
1
0
0
0
0
0
0
0
0
0
0
0
0
0
0
0
0
0
0
0
0
1
1
0
0
0
0
0
0
0
0
0
0
0
0
0
0
0
0
0
0
0
0
0
0
0
0
0
0
0
0
0
0
0
0
0
1
1
1
1
1
1
1
1
1
1
1
1
1
1
1
1
1
1
1
1
1
1
1
1
1
1
1
1
1
1
1
1
1
1
1
1
1
1
1
1
1
1
1
1
1
1
1
1
1
1
1
1
1
1
1
1
1
1
				</DataArray>
				<DataArray type="Float64" Name="h" NumberOfComponents="1" Format="ascii">
1.1985860142
1.1969032810
1.1968684590
1.1968009512
1.1967015889
1.1965716303
1.1964127646
1.1962269766
1.1960168897
1.1957858761
1.1955380907
1.1952787053
1.1950138312
1.1947504000
1.1944959428
1.1942581986
1.1940449171
1.1938633812
1.1937200037
1.1936202706
1.1935682007
1.1935682007
1.2176265963
1.2206140897
1.2191468120
1.2163792958
1.2125250420
1.2078796121
1.2027871949
1.1975972986
1.1926244142
1.1881166709
1.1842388192
1.1810722051
1.1786258835
1.1768537256
1.1756735361
1.1749839617
1.1746780820
1.1746528716
1.1748152705
1.1750860601
1.1754009373
1.1757105459
1.1759802548
1.1761882875
1.1763240046
1.1763866351
1.1763827402
1.1763242382
1.1762270649
1.1761087434
1.1759866866
1.1758772316
1.1757937539
1.1757456340
1.1757456340
1.1969032810
1.1951988710
1.1951480412
1.1950481016
1.1948991655
1.1947016966
1.1944568021
1.1941663945
1.1938337864
1.1934639916
1.1930638328
1.1926421302
1.1922094966
1.1917779907
1.1913606155
1.1909706522
1.1906211700
1.1903242843
1.1900905445
1.1899286890
1.1898449748
1.1935682007
1.2206140897
1.2233894168
1.2219661539
1.2192637183
1.2154667123
1.2108394928
1.2057014416
1.2003896869
1.1952204165
1.1904551386
1.1862787471
1.1827942897
1.1800300959
1.1779546226
1.1764950227
1.1755546080
1.1750274858
1.1748092270
1.1748040008
1.1749292475
1.1751173204
1.1753158654
1.1754877623
1.1756092972
1.1756684170
1.1756633784
1.1756001071
1.1754901308
1.1753491521
1.1751945464
1.1750436246
1.1749126376
1.1748148816
1.1747596701
1.1757456340
1.1967411398
1.1950656828
1.1950155218
1.1949169070
1.1947699627
1.1945751576
1.1943335890
1.1940471375
1.1937190548
1.1933542620
1.1929594614
1.1925433285
1.1921163162
1.1916903170
1.1912781705
1.1908930051
1.1905477517
1.1902544071
1.1900234233
1.1898634617
1.1897807256
1.1934809483
1.2204713961
1.2232613467
1.2218488393
1.2191683501
1.2154037446
1.2108178048
1.2057274533
1.2004667015
1.1953484674
1.1906314504
1.1864985802
1.1830518881
1.1803195445
1.1782704897
1.1768327346
1.1759105910
1.1753991472
1.1751948316
1.1752025012
1.1753401110
1.1755403613
1.1757510977
1.1759352787
1.1760691657
1.1761405994
1.1761476684
1.1760960857
1.1759971378
1.1758662715
1.1757206061
1.1755772105
1.1754521173
1.1753584435
1.1753053732
1.1762513713
1.1964033000
1.1947842342
1.1947354091
1.1946394343
1.1944964461
1.1943069110
1.1940718932
1.1937931981
1.1934739475
1.1931188750
1.1927344439
1.1923290498
1.1919128391
1.1914973898
1.1910952354
1.1907192194
1.1903820171
1.1900954064
1.1898696595
1.1897132961
1.1896324193
1.1932872337
1.2201786903
1.2229966065
1.2216057371
1.2189693122
1.2152696065
1.2107661440
1.2057708781
1.2006116487
1.1955950103
1.1909741663
1.1869281825
1.1835570814
1.1808887035
1.1788929168
1.1774993979
1.1766144077
1.1761349549
1.1759591539
1.1759932227
1.1761561427
1.1763813153
1.1766169979
1.1768263191
1.1769855038
1.1770821868
1.1771141215
1.1770865873
1.1770103724
1.1769003880
1.1767732139
1.1766454047
1.1765325282
1.1764473188
1.1763986829
1.1772660701
1.1958936092
1.1943562615
1.1943095466
1.1942177303
1.1940809430
1.1938996178
1.1936747364
1.1934079596
1.1931021881
1.1927618556
1.1923930583
1.1920037720
1.1916036920
1.1912039398
1.1908166082
1.1904541340
1.1901288281
1.1898521562
1.1896341339
1.1894830763
1.1894049415
1.1929925261
1.2197230420
1.2225799417
1.2212216070
1.2186512963
1.2150487129
1.2106683425
1.2058146378
1.2008062867
1.1959405276
1.1914625563
1.1875458241
1.1842874505
1.1817148151
1.1797991528
1.1784725805
1.1776442132
1.1772138762
1.1770821633
1.1771572998
1.1773597862
1.1776240637
1.1778989996
1.1781479701
1.1783471316
1.1784837900
1.1785551640
1.1785658396
1.1785258027
1.1784490979
1.1783514275
1.1782485078
1.1781551472
1.1780834550
1.1780418854
1.1787948976
1.1952184352
1.1937850310
1.1937413421
1.1936554698
1.1935274970
1.1933577594
1.1931470708
1.1928968441
1.1926096383
1.1922894528
1.1919418757
1.1915743185
1.1911958849
1.1908171060
1.1904495125
1.1901050250
1.1897954931
1.1895319855
1.1893241894
1.1891801543
1.1891056490
1.1926050248
1.2190848830
1.2219885124
1.2206736218
1.2181913605
1.2147177104
1.2105002092
1.2058332589
1.2010235299
1.1963561996
1.1920661910
1.1883197895
1.1852104399
1.1827649735
1.1809564112
1.1797200280
1.1789686306
1.1786056942
1.1785350352
1.1786674970
1.1789255674
1.1792450499
1.1795756069
1.1798809235
1.1801370363
1.1803307692
1.1804585673
1.1805240128
1.1805359235
1.1805070770
1.1804518866
1.1803848328
1.1803196044
1.1802673882
1.1802359728
1.1808433088
1.1943870939
1.1930758136
1.1930362271
1.1929583884
1.1928422618
1.1926879848
1.1924960767
1.1922675601
1.1920044984
1.1917102984
1.1913898847
1.1910499575
1.1906988927
1.1903465098
1.1900036697
1.1896816833
1.1893918536
1.1891447762
1.1889497406
1.1888144694
1.1887444940
1.1921357756
1.2182381526
1.2211922739
1.2199317215
1.2175592394
1.2142457472
1.2102297918
1.2057931781
1.2012278532
1.1968044498
1.1927456503
1.1892092472
1.1862843671
1.1839972344
1.1823230322
1.1812008293
1.1805478698
1.1802720297
1.1802810286
1.1804888974
1.1808205543
1.1812134743
1.1816182914
1.1819990522
1.1823316066
1.1826021185
1.1828059808
1.1829454069
1.1830276145
1.1830636355
1.1830660984
1.1830477663
1.1830207690
1.1829950087
1.1829773495
1.1834139374
1.1934127646
1.1922369036
1.1922026614
1.1921352600
1.1920344443
1.1919000130
1.1917320231
1.1915309237
1.1912980950
1.1910361690
1.1907492389
1.1904431437
1.1901254028
1.1898050155
1.1894920821
1.1891972246
1.1889311259
1.1887038358
1.1885241752
1.1883994704
1.1883349580
1.1915995866
1.2171509053
1.2201548875
1.2189594825
1.2167181372
1.2135951886
1.2098180483
1.2056534250
1.2013760468
1.1972398191
1.1934535461
1.1901654220
1.1874597196
1.1853619989
1.1838499057
1.1828668256
1.1823350688
1.1821675634
1.1822765402
1.1825797415
1.1830049357
1.1834915705
1.1839914283
1.1844689701
1.1848997888
1.1852691962
1.1855712246
1.1858063096
1.1859795755
1.1860997564
1.1861771202
1.1862221467
1.1862448894
1.1862535375
1.1862537245
1.1865026180
1.1923117832
1.1912790596
1.1912515551
1.1911972836
1.1911156413
1.1910059126
1.1908674843
1.1907000131
1.1905039783
1.1902810341
1.1900342643
1.1897684978
1.1894902773
1.1892076884
1.1889299959
1.1886670681
1.1884289008
1.1882249244
1.1880634077
1.1879511917
1.1878931406
1.1910140930
1.2157856647
1.2188343943
1.2177147909
1.2156254057
1.2127223365
1.2092196696
1.2053666253
1.2014184706
1.1976105269
1.1941364107
1.1911337971
1.1886816310
1.1868047037
1.1854833060
1.1846655157
1.1842791963
1.1842428634
1.1844737873
1.1848938993
1.1854342201
1.1860364723
1.1866537751
1.1872510718
1.1878036412
1.1882957568
1.1887197767
1.1890739273
1.1893607104
1.1895859610
1.1897569514
1.1898812502
1.1899662560
1.1900179648
1.1900404356
1.1900946101
1.1911036583
1.1902157228
1.1901964682
1.1901582478
1.1900999587
1.1900201664
1.1899173495
1.1897901250
1.1896378315
1.1894609279
1.1892613058
1.1890426388
1.1888103847
1.1885716373
1.1883347672
1.1881088361
1.1879030875
1.1877262460
1.1875859177
1.1874883305
1.1874378587
1.1903998447
1.2141005342
1.2171846561
1.2161512627
1.2142339338
1.2115788054
1.2083844895
1.2048805087
1.2013007204
1.1978603448
1.1947367965
1.1920564279
1.1898923747
1.1882684461
1.1871675923
1.1865427750
1.1863277312
1.1864469698
1.1868232409
1.1873830984
1.1880612034
1.1888018678
1.1895597615
1.1903004076
1.1909987467
1.1916378596
1.1922081424
1.1927051995
1.1931283859
1.1934800308
1.1937637621
1.1939835891
1.1941436556
1.1942472639
1.1942965410
1.1941603797
1.1898111320
1.1890633692
1.1890539508
1.1890348515
1.1890043058
1.1889599386
1.1888990648
1.1888189983
1.1887176850
1.1885941650
1.1884489563
1.1882844394
1.1881048929
1.1879163573
1.1877262664
1.1875428306
1.1873744701
1.1872290904
1.1871134746
1.1870330396
1.1869914777
1.1897811091
1.2120510365
1.2151575211
1.2142203917
1.2124942558
1.2101135972
1.2072595574
1.2041400206
1.2009658195
1.1979309062
1.1951957055
1.1928744767
1.1910339726
1.1896966314
1.1888478588
1.1884454740
1.1884292176
1.1887298526
1.1892759563
1.1899990906
1.1908379358
1.1917397258
1.1926609330
1.1935678050
1.1944349718
1.1952442264
1.1959837786
1.1966462633
1.1972274281
1.1977255460
1.1981400030
1.1984706457
1.1987178009
1.1988816074
1.1989619244
1.1986520607
1.1884588566
1.1878405251
1.1878425437
1.1878456765
1.1878473301
1.1878439664
1.1878314787
1.1878056152
1.1877626782
1.1877000703
1.1876167629
1.1875137197
1.1873939629
1.1872624390
1.1871256191
1.1869908253
1.1868655707
1.1867567860
1.1866701879
1.1866100642
1.1865791034
1.1891850227
1.2095914697
1.2127044367
1.2118732282
1.2103563404
1.2082750443
1.2057912759
1.2030896871
1.2003568355
1.1977645876
1.1954557057
1.1935315124
1.1920516291
1.1910364889
1.1904734876
1.1903250302
1.1905367864
1.1910458768
1.1917869545
1.1926969255
1.1937188583
1.1948032667
1.1959087274
1.1970024217
1.1980587738
1.1990582814
1.1999868451
1.2008339020
1.2015912603
1.2022527180
1.2028129513
1.2032671651
1.2036114187
1.2038423111
1.2039571665
1.2035022994
1.1870726665
1.1865674034
1.1865824049
1.1866107947
1.1866489999
1.1866921129
1.1867343654
1.1867696943
1.1867925257
1.1867984229
1.1867846567
1.1867506714
1.1866981803
1.1866310206
1.1865546982
1.1864756225
1.1864003065
1.1863344840
1.1862824371
1.1862468142
1.1862287455
1.1886417315
1.2066770765
1.2097788337
1.2090628530
1.2077721989
1.2060135649
1.2039282858
1.2016765897
1.1994199226
1.1973075992
1.1954639988
1.1939765018
1.1928965965
1.1922417861
1.1920007006
1.1921398002
1.1926104016
1.1933559223
1.1943172329
1.1954368688
1.1966626436
1.1979487352
1.1992561846
1.2005533984
1.2018148040
1.2030197146
1.2041517397
1.2051970548
1.2061433879
1.2069798503
1.2076961496
1.2082825748
1.2087306548
1.2090332300
1.2091849362
1.2086244414
1.1856787641
1.1852654772
1.1852948850
1.1853513464
1.1854301870
1.1855249570
1.1856280236
1.1857313026
1.1858271439
1.1859090994
1.1859726151
1.1860155453
1.1860382720
1.1860435485
1.1860359531
1.1860209886
1.1860040576
1.1859894148
1.1859793582
1.1859740810
1.1859721991
1.1881852263
1.2032666972
1.2063389382
1.2057473647
1.2046991178
1.2032851108
1.2016250210
1.1998539177
1.1981077948
1.1965132896
1.1951754642
1.1941665224
1.1935285284
1.1932748270
1.1933942255
1.1938564624
1.1946180109
1.1956283757
1.1968346610
1.1981852588
1.1996330715
1.2011363486
1.2026590165
1.2041710965
1.2056473516
1.2070661779
1.2084090846
1.2096591255
1.2108000458
1.2118163197
1.2126927045
1.2134145642
1.2139688823
1.2143447275
1.2145340446
1.2139153254
1.1843022367
1.1839563307
1.1840013807
1.1840883909
1.1842115075
1.1843626166
1.1845320697
1.1847096041
1.1848853417
1.1850506970
1.1851992093
1.1853271129
1.1854334989
1.1855201185
1.1855907279
1.1856499863
1.1857021159
1.1857495401
1.1857918087
1.1858253722
1.1858446701
1.1878529074
1.1993239604
1.2023490309
1.2018916190
1.2011020630
1.2000541809
1.1988452134
1.1975847631
1.1963836326
1.1953460087
1.1945562685
1.1940700240
1.1939183546
1.1941089257
1.1946294081
1.1954517988
1.1965370703
1.1978404541
1.1993152106
1.2009157154
1.2026002977
1.2043317124
1.2060772613
1.2078090713
1.2095027224
1.2111361401
1.2126891288
1.2141419939
1.2154748496
1.2166678744
1.2177011933
1.2185555385
1.2192135990
1.2196608887
1.2198868209
1.2192615988
1.1829663875
1.1826612821
1.1827230748
1.1828427752
1.1830133003
1.1832247955
1.1834654996
1.1837228718
1.1839847129
1.1842402324
1.1844810479
1.1847018210
1.1849004814
1.1850779846
1.1852375278
1.1853831575
1.1855179702
1.1856422136
1.1857516448
1.1858369567
1.1858854838
1.1876862526
1.1948186935
1.1977809038
1.1974695299
1.1969569919
1.1962980439
1.1955666951
1.1948470939
1.1942259129
1.1937854865
1.1935875657
1.1936697139
1.1940503545
1.1947297586
1.1956929235
1.1969128966
1.1983543192
1.1999776848
1.2017422344
1.2036084031
1.2055401955
1.2075053677
1.2094751584
1.2114244047
1.2133301409
1.2151704516
1.2169240679
1.2185691454
1.2200827839
1.2214414711
1.2226213115
1.2235989755
1.2243533687
1.2248668701
1.2251266746
1.2245467226
1.1816919170
1.1814007543
1.1814802502
1.1816343887
1.1818548400
1.1821299812
1.1824459014
1.1827877473
1.1831409707
1.1834925727
1.1838323019
1.1841533849
1.1844528198
1.1847311477
1.1849914965
1.1852378570
1.1854725967
1.1856936718
1.1858918290
1.1860490187
1.1861403455
1.1877330610
1.1897273000
1.1926142147
1.1924659896
1.1922545911
1.1920118396
1.1917871959
1.1916396505
1.1916338917
1.1918314760
1.1922690424
1.1929649644
1.1939234616
1.1951357125
1.1965823762
1.1982361695
1.2000644076
1.2020322471
1.2041046713
1.2062481989
1.2084327450
1.2106314901
1.2128202996
1.2149774464
1.2170821937
1.2191136209
1.2210501907
1.2228687679
1.2245442476
1.2260502668
1.2273597341
1.2284460576
1.2292850620
1.2298565758
1.2301459959
1.2296589005
1.1804963393
1.1801936679
1.1802915840
1.1804813703
1.1807534713
1.1810945222
1.1814884886
1.1819182357
1.1823669019
1.1828193349
1.1832635262
1.1836914686
1.1840995885
1.1844885846
1.1848623464
1.1852258639
1.1855818803
1.1859266416
1.1862449565
1.1865059898
1.1866638526
1.1880498928
1.1840286301
1.1868322472
1.1868761991
1.1870030325
1.1872136501
1.1875304357
1.1879887418
1.1886342964
1.1895092942
1.1906232253
1.1919748767
1.1935532384
1.1953388903
1.1973065293
1.1994270235
1.2016691825
1.2040020447
1.2063959946
1.2088236326
1.2112610329
1.2136872610
1.2160834384
1.2184321706
1.2207158818
1.2229155983
1.2250105266
1.2269772052
1.2287893646
1.2304187328
1.2318359774
1.2330121642
1.2339208576
1.2345400018
1.2348536772
1.2344992603
1.1793942987
1.1790576053
1.1791743626
1.1794003748
1.1797249189
1.1801329651
1.1806064379
1.1811260077
1.1816725815
1.1822289418
1.1827814613
1.1833211407
1.1838442781
1.1843525206
1.1848518016
1.1853499875
1.1858525605
1.1863563160
1.1868406336
1.1872574214
1.1875255036
1.1887080126
1.1776955433
1.1804135400
1.1807046350
1.1812324515
1.1819515609
1.1828542415
1.1839569376
1.1852891989
1.1868757544
1.1886993754
1.1907405372
1.1929727188
1.1953648628
1.1978841674
1.2004980678
1.2031754766
1.2058882928
1.2086117658
1.2113245209
1.2140090183
1.2166507792
1.2192369012
1.2217551137
1.2241921044
1.2265319284
1.2287555875
1.2308404067
1.2327599644
1.2344851644
1.2359853924
1.2372302582
1.2381919178
1.2388471111
1.2391790825
1.2389869015
1.1783979296
1.1780088923
1.1781445819
1.1784067019
1.1787834533
1.1792582601
1.1798111318
1.1804206670
1.1810656406
1.1817268493
1.1823891499
1.1830427467
1.1836842424
1.1843171613
1.1849512337
1.1856001912
1.1862767711
1.1869839892
1.1877005454
1.1883591059
1.1888224156
1.1898060619
1.1706756604
1.1733127742
1.1739619787
1.1750010814
1.1763130777
1.1778585489
1.1796483880
1.1817014737
1.1840224630
1.1865752821
1.1893252896
1.1922315951
1.1952509990
1.1983418514
1.2014664555
1.2045921979
1.2076925335
1.2107467848
1.2137393483
1.2166593402
1.2194992082
1.2222529163
1.2249142760
1.2274750659
1.2299235718
1.2322436804
1.2344145268
1.2364105982
1.2382028814
1.2397604398
1.2410523113
1.2420499109
1.2427294115
1.2430736723
1.2430617361
1.1775175011
1.1770628939
1.1772172487
1.1775146167
1.1779422379
1.1784821360
1.1791125541
1.1798101467
1.1805516305
1.1813158201
1.1820860241
1.1828516455
1.1836097965
1.1843666788
1.1851378270
1.1859470251
1.1868218970
1.1877836418
1.1888252797
1.1898699629
1.1907034300
1.1914941072
1.1628471429
1.1654170182
1.1666591368
1.1684075757
1.1704443068
1.1727046669
1.1752176732
1.1780196176
1.1810771772
1.1843572119
1.1878144133
1.1913956058
1.1950456572
1.1987128742
1.2023526078
1.2059288516
1.2094149926
1.2127933858
1.2160537641
1.2191919495
1.2222079351
1.2251032094
1.2278785858
1.2305320662
1.2330571348
1.2354408916
1.2376657105
1.2397079311
1.2415394898
1.2431299053
1.2444483054
1.2454660641
1.2461591760
1.2465103599
1.2466852367
1.1767622027
1.1762344118
1.1764067967
1.1767378058
1.1772138455
1.1778156931
1.1785199701
1.1793014844
1.1801348903
1.1809968662
1.1818688604
1.1827390261
1.1836045575
1.1844743912
1.1853713281
1.1863339006
1.1874157383
1.1886782139
1.1901654625
1.1918378460
1.1934206391
1.1940251599
1.1539264241
1.1564538566
1.1588019857
1.1616052417
1.1645554391
1.1676262167
1.1708941376
1.1744354463
1.1782074087
1.1821856496
1.1863215554
1.1905529223
1.1948135495
1.1990409818
1.2031820758
1.2071955858
1.2110531619
1.2147388747
1.2182471519
1.2215803408
1.2247462535
1.2277544772
1.2306136304
1.2333284839
1.2358982602
1.2383155218
1.2405656444
1.2426273030
1.2444740745
1.2460763888
1.2474040935
1.2484287411
1.2491264561
1.2494800624
1.2498377601
1.1761403620
1.1755374935
1.1757269144
1.1760892550
1.1766102162
1.1772694755
1.1780421530
1.1789012501
1.1798192358
1.1807702641
1.1817331788
1.1826936763
1.1836473547
1.1846040627
1.1855928887
1.1866696440
1.1879261644
1.1894980594
1.1915576436
1.1942485888
1.1974406437
1.1978664166
1.1432384832
1.1457645933
1.1503667241
1.1548100334
1.1589220065
1.1629027590
1.1669674624
1.1711959204
1.1756190785
1.1802296705
1.1849816277
1.1898068809
1.1946291720
1.1993748865
1.2039810864
1.2083996610
1.2125987968
1.2165630079
1.2202904316
1.2237896439
1.2270760898
1.2301679252
1.2330815604
1.2358295881
1.2384175443
1.2408427510
1.2430943244
1.2451538057
1.2469965632
1.2485944505
1.2499179628
1.2509391464
1.2516344883
1.2519870622
1.2525144459
1.1756598673
1.1749854889
1.1751906129
1.1755813479
1.1761428114
1.1768537113
1.1776877560
1.1786161192
1.1796088355
1.1806368886
1.1816752460
1.1827049013
1.1837162014
1.1847145147
1.1857282323
1.1868241102
1.1881350643
1.1899077437
1.1925774950
1.1968539898
1.2036746851
1.2039290176
1.1292558256
1.1318528507
1.1413726936
1.1484112085
1.1539971380
1.1589564150
1.1637426886
1.1685602750
1.1735249364
1.1786595040
1.1839265226
1.1892549047
1.1945593247
1.1997545491
1.2047666080
1.2095388770
1.2140344761
1.2182368457
1.2221469326
1.2257786604
1.2291549892
1.2323020465
1.2352445767
1.2380022189
1.2405867059
1.2430002395
1.2452357874
1.2472776292
1.2491031200
1.2506852550
1.2519953935
1.2530061680
1.2536945020
1.2540437520
1.2547203188
1.1753282432
1.1745908377
1.1748100223
1.1752256914
1.1758224930
1.1765782843
1.1774654380
1.1784532516
1.1795090168
1.1805997406
1.1816948264
1.1827672999
1.1837962348
1.1847718637
1.1857037609
1.1866412643
1.1877229837
1.1892966879
1.1922229920
1.1986522086
1.2139483954
1.2140366754
1.1085986665
1.1113945348
1.1320821917
1.1431727595
1.1504620974
1.1562545840
1.1615372104
1.1667532050
1.1720917079
1.1776014036
1.1832507737
1.1889643146
1.1946467916
1.2002005497
1.2055395310
1.2105974138
1.2153309445
1.2197213972
1.2237713791
1.2274994551
1.2309350190
1.2341118287
1.2370616928
1.2398108874
1.2423768071
1.2447661346
1.2469752027
1.2489907901
1.2507917925
1.2523522786
1.2536443988
1.2546413300
1.2553203872
1.2556652187
1.2564648117
1.1751519126
1.1743641100
1.1745954319
1.1750321563
1.1756585741
1.1764518179
1.1773830279
1.1784196342
1.1795259770
1.1806644161
1.1817971797
1.1828857606
1.1838902139
1.1847685979
1.1854727085
1.1859412121
1.1860847243
1.1857404945
1.1845362055
1.1814487263
1.1732778701
1.1374156393
1.0880123166
1.1108688132
1.1482491074
1.1391500339
1.1415586127
1.1459618474
1.1507740429
1.1556913056
1.1607273272
1.1659567203
1.1714257986
1.1771279015
1.1830065407
1.1889704996
1.1949107894
1.2007160542
1.2062877093
1.2115494178
1.2164511864
1.2209714768
1.2251138362
1.2289003065
1.2323656945
1.2355498269
1.2384905033
1.2412194710
1.2437587445
1.2461185319
1.2482977862
1.2502850636
1.2520603652
1.2535985387
1.2548723179
1.2558552674
1.2565250104
1.2568654426
1.2577577530
1.1751361088
1.1743137988
1.1745550766
1.1750086492
1.1756585676
1.1764813950
1.1774472199
1.1785217843
1.1796666253
1.1808395071
1.1819953340
1.1830835840
1.1840444283
1.1848029858
1.1852551513
1.1852434444
1.1845131413
1.1826212344
1.1787553729
1.1713749851
1.1575457659
1.1286973126
1.0905021061
1.1133237377
1.1343609658
1.1379328822
1.1419593975
1.1464183860
1.1510384733
1.1557901803
1.1607340231
1.1659366141
1.1714303705
1.1771984125
1.1831757350
1.1892621380
1.1953383932
1.2012819475
1.2069836769
1.2123588180
1.2173516135
1.2219380844
1.2261222854
1.2299288097
1.2333963183
1.2365691214
1.2394892962
1.2421923850
1.2447034960
1.2470350371
1.2491874805
1.2511503120
1.2529040295
1.2544238198
1.2556826835
1.2566543669
1.2573166735
1.2576536730
1.2586055201
1.1752844581
1.1744458520
1.1746946603
1.1751606001
1.1758276067
1.1766718638
1.1776626774
1.1787644713
1.1799365175
1.1811327937
1.1823021673
1.1833843264
1.1843038677
1.1849620073
1.1852187428
1.1848659674
1.1835878942
1.1808971476
1.1760537917
1.1680065193
1.1554997364
1.1368571428
1.1180416205
1.1238910825
1.1340062500
1.1389544555
1.1432402693
1.1475797078
1.1520279986
1.1566275094
1.1614504061
1.1665623748
1.1719938559
1.1777265471
1.1836926973
1.1897874366
1.1958852529
1.2018562901
1.2075846420
1.2129803380
1.2179843159
1.2225714221
1.2267464408
1.2305356804
1.2339801840
1.2371268160
1.2400198432
1.2426965747
1.2451833600
1.2474932193
1.2496268484
1.2515737366
1.2533141501
1.2548230527
1.2560733166
1.2570386372
1.2576968462
1.2580320943
1.2590084767
1.1755979248
1.1747625989
1.1750162603
1.1754897998
1.1761671620
1.1770243646
1.1780302591
1.1791484511
1.1803367404
1.1815465868
1.1827228667
1.1837988004
1.1846891885
1.1852816271
1.1854188688
1.1848758905
1.1833344755
1.1803549915
1.1753758817
1.1678049478
1.1573162422
1.1443075813
1.1329056433
1.1326219147
1.1369945165
1.1410230727
1.1450314168
1.1491756186
1.1534652713
1.1579283322
1.1626265039
1.1676210124
1.1729423225
1.1785736430
1.1844477266
1.1904588087
1.1964795394
1.2023778244
1.2080360426
1.2133636513
1.2183018200
1.2228264136
1.2269435890
1.2306809001
1.2340803289
1.2371892752
1.2400519789
1.2427053547
1.2451750260
1.2474730059
1.2495988693
1.2515410764
1.2532789836
1.2547866959
1.2560364847
1.2570016823
1.2576600156
1.2579956160
1.2589606226
1.1760751241
1.1752630944
1.1755186814
1.1759947419
1.1766753465
1.1775365781
1.1785471680
1.1796704502
1.1808636331
1.1820770752
1.1832539166
1.1843241251
1.1851978401
1.1857569033
1.1858385353
1.1852169976
1.1835900027
1.1805743573
1.1757472318
1.1687891224
1.1597853581
1.1496646595
1.1412400733
1.1387595186
1.1403105226
1.1432781666
1.1468910357
1.1508500096
1.1550253173
1.1593933904
1.1639936020
1.1688785956
1.1740773423
1.1795745239
1.1853049363
1.1911650534
1.1970302722
1.2027717863
1.2082761150
1.2134573217
1.2182609849
1.2226665457
1.2266825678
1.2303375311
1.2336731066
1.2367353445
1.2395663953
1.2422007071
1.2446613977
1.2469579743
1.2490877202
1.2510370984
1.2527837793
1.2543005552
1.2555585588
1.2565303575
1.2571932969
1.2575314566
1.2584492412
1.1767123228
1.1759431536
1.1761975028
1.1766706632
1.1773469448
1.1782027636
1.1792069962
1.1803232399
1.1815089535
1.1827147618
1.1838843984
1.1849470729
1.1858122575
1.1863611638
1.1864311726
1.1857997880
1.1841764728
1.1812082319
1.1765363339
1.1699533495
1.1616880211
1.1527686257
1.1454055702
1.1421944919
1.1425980756
1.1449878414
1.1483803421
1.1522675388
1.1564172302
1.1607598699
1.1653136418
1.1701219634
1.1752109453
1.1805659485
1.1861246896
1.1917886926
1.1974405161
1.2029600635
1.2082437856
1.2132153039
1.2178284253
1.2220686444