<VTKFile type="UnstructuredGrid" version="0.1">
	<UnstructuredGrid>
		<Piece NumberOfPoints="13548" NumberOfCells="3387">
			<CellData>
				<DataArray type="Int32" Name="ghost" NumberOfComponents="1" Format="ascii">
1
1
1
1
1
1
1
1
1
1
1
1
1
1
1
1
1
1
1
1
1
1
1
1
1
1
1
1
1
1
1
1
1
1
1
1
1
1
1
1
1
1
1
1
1
1
1
1
1
1
1
1
1
1
1
1
1
1
0
0
0
0
0
0
0
0
0
0
0
0
0
0
0
0
0
0
0
0
1
1
0
0
0
0
0
0
0
0
0
0
0
0
0
0
0
0
0
0
0
0
0
0
0
0
0
0
0
0
0
0
0
0
0
1
1
0
0
0
0
0
0
0
0
0
0
0
0
0
0
0
0
0
0
0
0
1
1
0
0
0
0
0
0
0
0
0
0
0
0
0
0
0
0
0
0
0
0
0
0
0
0
0
0
0
0
0
0
0
0
0
1
1
0
0
0
0
0
0
0
0
0
0
0
0
0
0
0
0
0
0
0
0
1
1
0
0
0
0
0
0
0
0
0
0
0
0
0
0
0
0
0
0
0
0
0
0
0
0
0
0
0
0
0
0
0
0
0
1
1
0
0
0
0
0
0
0
0
0
0
0
0
0
0
0
0
0
0
0
0
1
1
0
0
0
0
0
0
0
0
0
0
0
0
0
0
0
0
0
0
0
0
0
0
0
0
0
0
0
0
0
0
0
0
0
1
1
0
0
0
0
0
0
0
0
0
0
0
0
0
0
0
0
0
0
0
0
1
1
0
0
0
0
0
0
0
0
0
0
0
0
0
0
0
0
0
0
0
0
0
0
0
0
0
0
0
0
0
0
0
0
0
1
1
0
0
0
0
0
0
0
0
0
0
0
0
0
0
0
0
0
0
0
0
1
1
0
0
0
0
0
0
0
0
0
0
0
0
0
0
0
0
0
0
0
0
0
0
0
0
0
0
0
0
0
0
0
0
0
1
1
0
0
0
0
0
0
0
0
0
0
0
0
0
0
0
0
0
0
0
0
1
1
0
0
0
0
0
0
0
0
0
0
0
0
0
0
0
0
0
0
0
0
0
0
0
0
0
0
0
0
0
0
0
0
0
1
1
0
0
0
0
0
0
0
0
0
0
0
0
0
0
0
0
0
0
0
0
1
1
0
0
0
0
0
0
0
0
0
0
0
0
0
0
0
0
0
0
0
0
0
0
0
0
0
0
0
0
0
0
0
0
0
1
1
0
0
0
0
0
0
0
0
0
0
0
0
0
0
0
0
0
0
0
0
1
1
0
0
0
0
0
0
0
0
0
0
0
0
0
0
0
0
0
0
0
0
0
0
0
0
0
0
0
0
0
0
0
0
0
1
1
0
0
0
0
0
0
0
0
0
0
0
0
0
0
0
0
0
0
0
0
1
1
0
0
0
0
0
0
0
0
0
0
0
0
0
0
0
0
0
0
0
0
0
0
0
0
0
0
0
0
0
0
0
0
0
1
1
0
0
0
0
0
0
0
0
0
0
0
0
0
0
0
0
0
0
0
0
1
1
0
0
0
0
0
0
0
0
0
0
0
0
0
0
0
0
0
0
0
0
0
0
0
0
0
0
0
0
0
0
0
0
0
1
1
0
0
0
0
0
0
0
0
0
0
0
0
0
0
0
0
0
0
0
0
1
1
0
0
0
0
0
0
0
0
0
0
0
0
0
0
0
0
0
0
0
0
0
0
0
0
0
0
0
0
0
0
0
0
0
1
1
0
0
0
0
0
0
0
0
0
0
0
0
0
0
0
0
0
0
0
0
1
1
0
0
0
0
0
0
0
0
0
0
0
0
0
0
0
0
0
0
0
0
0
0
0
0
0
0
0
0
0
0
0
0
0
1
1
0
0
0
0
0
0
0
0
0
0
0
0
0
0
0
0
0
0
0
0
1
1
0
0
0
0
0
0
0
0
0
0
0
0
0
0
0
0
0
0
0
0
0
0
0
0
0
0
0
0
0
0
0
0
0
1
1
0
0
0
0
0
0
0
0
0
0
0
0
0
0
0
0
0
0
0
0
1
1
0
0
0
0
0
0
0
0
0
0
0
0
0
0
0
0
0
0
0
0
0
0
0
0
0
0
0
0
0
0
0
0
0
1
1
0
0
0
0
0
0
0
0
0
0
0
0
0
0
0
0
0
0
0
0
1
1
0
0
0
0
0
0
0
0
0
0
0
0
0
0
0
0
0
0
0
0
0
0
0
0
0
0
0
0
0
0
0
0
0
1
1
0
0
0
0
0
0
0
0
0
0
0
0
0
0
0
0
0
0
0
0
1
1
0
0
0
0
0
0
0
0
0
0
0
0
0
0
0
0
0
0
0
0
0
0
0
0
0
0
0
0
0
0
0
0
0
1
1
0
0
0
0
0
0
0
0
0
0
0
0
0
0
0
0
0
0
0
0
1
1
0
0
0
0
0
0
0
0
0
0
0
0
0
0
0
0
0
0
0
0
0
0
0
0
0
0
0
0
0
0
0
0
0
1
1
0
0
0
0
0
0
0
0
0
0
0
0
0
0
0
0
0
0
0
0
1
1
0
0
0
0
0
0
0
0
0
0
0
0
0
0
0
0
0
0
0
0
0
0
0
0
0
0
0
0
0
0
0
0
0
1
1
0
0
0
0
0
0
0
0
0
0
0
0
0
0
0
0
0
0
0
0
1
1
0
0
0
0
0
0
0
0
0
0
0
0
0
0
0
0
0
0
0
0
0
0
0
0
0
0
0
0
0
0
0
0
0
1
1
0
0
0
0
0
0
0
0
0
0
0
0
0
0
0
0
0
0
0
0
1
1
0
0
0
0
0
0
0
0
0
0
0
0
0
0
0
0
0
0
0
0
0
0
0
0
0
0
0
0
0
0
0
0
0
1
1
0
0
0
0
0
0
0
0
0
0
0
0
0
0
0
0
0
0
0
0
1
1
0
0
0
0
0
0
0
0
0
0
0
0
0
0
0
0
0
0
0
0
0
0
0
0
0
0
0
0
0
0
0
0
0
1
1
0
0
0
0
0
0
0
0
0
0
0
0
0
0
0
0
0
0
0
0
1
1
0
0
0
0
0
0
0
0
0
0
0
0
0
0
0
0
0
0
0
0
0
0
0
0
0
0
0
0
0
0
0
0
0
1
1
0
0
0
0
0
0
0
0
0
0
0
0
0
0
0
0
0
0
0
0
1
1
0
0
0
0
0
0
0
0
0
0
0
0
0
0
0
0
0
0
0
0
0
0
0
0
0
0
0
0
0
0
0
0
0
1
1
0
0
0
0
0
0
0
0
0
0
0
0
0
0
0
0
0
0
0
0
0
1
1
0
0
0
0
0
0
0
0
0
0
0
0
0
0
0
0
0
0
0
0
0
0
0
0
0
0
0
0
0
0
0
0
0
0
1
1
0
0
0
0
0
0
0
0
0
0
0
0
0
0
0
0
0
0
0
0
0
0
0
0
0
0
0
0
0
0
0
0
0
0
0
0
0
0
0
0
0
0
0
0
0
0
0
0
0
0
0
0
0
0
0
0
0
1
1
0
0
0
0
0
0
0
0
0
0
0
0
0
0
0
0
0
0
0
0
0
0
0
0
0
0
0
0
0
0
0
0
0
0
0
0
0
0
0
0
0
0
0
0
0
0
0
0
0
0
0
0
0
0
0
0
0
1
1
0
0
0
0
0
0
0
0
0
0
0
0
0
0
0
0
0
0
0
0
0
0
0
0
0
0
0
0
0
0
0
0
0
0
0
0
0
0
0
0
0
0
0
0
0
0
0
0
0
0
0
0
0
0
0
0
0
1
1
0
0
0
0
0
0
0
0
0
0
0
0
0
0
0
0
0
0
0
0
0
0
0
0
0
0
0
0
0
0
0
0
0
0
0
0
0
0
0
0
0
0
0
0
0
0
0
0
0
0
0
0
0
0
0
0
0
1
1
0
0
0
0
0
0
0
0
0
0
0
0
0
0
0
0
0
0
0
0
0
0
0
0
0
0
0
0
0
0
0
0
0
0
0
0
0
0
0
0
0
0
0
0
0
0
0
0
0
0
0
0
0
0
0
0
0
1
1
0
0
0
0
0
0
0
0
0
0
0
0
0
0
0
0
0
0
0
0
0
0
0
0
0
0
0
0
0
0
0
0
0
0
0
0
0
0
0
0
0
0
0
0
0
0
0
0
0
0
0
0
0
0
0
0
0
1
1
0
0
0
0
0
0
0
0
0
0
0
0
0
0
0
0
0
0
0
0
0
0
0
0
0
0
0
0
0
0
0
0
0
0
0
0
0
0
0
0
0
0
0
0
0
0
0
0
0
0
0
0
0
0
0
0
0
1
1
0
0
0
0
0
0
0
0
0
0
0
0
0
0
0
0
0
0
0
0
0
0
0
0
0
0
0
0
0
0
0
0
0
0
0
0
0
0
0
0
0
0
0
0
0
0
0
0
0
0
0
0
0
0
0
0
0
1
1
0
0
0
0
0
0
0
0
0
0
0
0
0
0
0
0
0
0
0
0
0
0
0
0
0
0
0
0
0
0
0
0
0
0
0
0
0
0
0
0
0
0
0
0
0
0
0
0
0
0
0
0
0
0
0
0
0
1
1
0
0
0
0
0
0
0
0
0
0
0
0
0
0
0
0
0
0
0
0
0
0
0
0
0
0
0
0
0
0
0
0
0
0
0
0
0
0
0
0
0
0
0
0
0
0
0
0
0
0
0
0
0
0
0
0
0
1
1
0
0
0
0
0
0
0
0
0
0
0
0
0
0
0
0
0
0
0
0
0
1
1
0
0
0
0
0
0
0
0
0
0
0
0
0
0
0
0
0
0
0
0
0
0
0
0
0
0
0
0
0
0
0
0
0
0
1
1
0
0
0
0
0
0
0
0
0
0
0
0
0
0
0
0
0
0
0
0
1
1
0
0
0
0
0
0
0
0
0
0
0
0
0
0
0
0
0
0
0
0
0
0
0
0
0
0
0
0
0
0
0
0
0
1
1
0
0
0
0
0
0
0
0
0
0
0
0
0
0
0
0
0
0
0
0
1
1
0
0
0
0
0
0
0
0
0
0
0
0
0
0
0
0
0
0
0
0
0
0
0
0
0
0
0
0
0
0
0
0
0
1
1
0
0
0
0
0
0
0
0
0
0
0
0
0
0
0
0
0
0
0
0
1
1
0
0
0
0
0
0
0
0
0
0
0
0
0
0
0
0
0
0
0
0
0
0
0
0
0
0
0
0
0
0
0
0
0
1
1
0
0
0
0
0
0
0
0
0
0
0
0
0
0
0
0
0
0
0
0
1
1
0
0
0
0
0
0
0
0
0
0
0
0
0
0
0
0
0
0
0
0
0
0
0
0
0
0
0
0
0
0
0
0
0
1
1
0
0
0
0
0
0
0
0
0
0
0
0
0
0
0
0
0
0
0
0
1
1
0
0
0
0
0
0
0
0
0
0
0
0
0
0
0
0
0
0
0
0
0
0
0
0
0
0
0
0
0
0
0
0
0
1
1
0
0
0
0
0
0
0
0
0
0
0
0
0
0
0
0
0
0
0
0
1
1
0
0
0
0
0
0
0
0
0
0
0
0
0
0
0
0
0
0
0
0
0
0
0
0
0
0
0
0
0
0
0
0
0
1
1
0
0
0
0
0
0
0
0
0
0
0
0
0
0
0
0
0
0
0
0
1
1
0
0
0
0
0
0
0
0
0
0
0
0
0
0
0
0
0
0
0
0
0
0
0
0
0
0
0
0
0
0
0
0
0
1
1
0
0
0
0
0
0
0
0
0
0
0
0
0
0
0
0
0
0
0
0
1
1
0
0
0
0
0
0
0
0
0
0
0
0
0
0
0
0
0
0
0
0
0
0
0
0
0
0
0
0
0
0
0
0
0
1
1
0
0
0
0
0
0
0
0
0
0
0
0
0
0
0
0
0
0
0
0
1
1
0
0
0
0
0
0
0
0
0
0
0
0
0
0
0
0
0
0
0
0
0
0
0
0
0
0
0
0
0
0
0
0
0
1
1
0
0
0
0
0
0
0
0
0
0
0
0
0
0
0
0
0
0
0
0
1
1
0
0
0
0
0
0
0
0
0
0
0
0
0
0
0
0
0
0
0
0
0
0
0
0
0
0
0
0
0
0
0
0
0
1
1
0
0
0
0
0
0
0
0
0
0
0
0
0
0
0
0
0
0
0
0
1
1
0
0
0
0
0
0
0
0
0
0
0
0
0
0
0
0
0
0
0
0
0
0
0
0
0
0
0
0
0
0
0
0
0
1
1
0
0
0
0
0
0
0
0
0
0
0
0
0
0
0
0
0
0
0
0
1
1
0
0
0
0
0
0
0
0
0
0
0
0
0
0
0
0
0
0
0
0
0
0
0
0
0
0
0
0
0
0
0
0
0
1
1
0
0
0
0
0
0
0
0
0
0
0
0
0
0
0
0
0
0
0
0
1
1
0
0
0
0
0
0
0
0
0
0
0
0
0
0
0
0
0
0
0
0
0
0
0
0
0
0
0
0
0
0
0
0
0
1
1
0
0
0
0
0
0
0
0
0
0
0
0
0
0
0
0
0
0
0
0
1
1
0
0
0
0
0
0
0
0
0
0
0
0
0
0
0
0
0
0
0
0
0
0
0
0
0
0
0
0
0
0
0
0
0
1
1
0
0
0
0
0
0
0
0
0
0
0
0
0
0
0
0
0
0
0
0
1
1
0
0
0
0
0
0
0
0
0
0
0
0
0
0
0
0
0
0
0
0
0
0
0
0
0
0
0
0
0
0
0
0
0
1
1
0
0
0
0
0
0
0
0
0
0
0
0
0
0
0
0
0
0
0
0
1
1
0
0
0
0
0
0
0
0
0
0
0
0
0
0
0
0
0
0
0
0
0
0
0
0
0
0
0
0
0
0
0
0
0
1
1
0
0
0
0
0
0
0
0
0
0
0
0
0
0
0
0
0
0
0
0
1
1
0
0
0
0
0
0
0
0
0
0
0
0
0
0
0
0
0
0
0
0
0
0
0
0
0
0
0
0
0
0
0
0
0
1
1
0
0
0
0
0
0
0
0
0
0
0
0
0
0
0
0
0
0
0
0
1
1
0
0
0
0
0
0
0
0
0
0
0
0
0
0
0
0
0
0
0
0
0
0
0
0
0
0
0
0
0
0
0
0
0
1
1
0
0
0
0
0
0
0
0
0
0
0
0
0
0
0
0
0
0
0
0
1
1
0
0
0
0
0
0
0
0
0
0
0
0
0
0
0
0
0
0
0
0
0
0
0
0
0
0
0
0
0
0
0
0
0
1
1
0
0
0
0
0
0
0
0
0
0
0
0
0
0
0
0
0
0
0
0
1
1
0
0
0
0
0
0
0
0
0
0
0
0
0
0
0
0
0
0
0
0
0
0
0
0
0
0
0
0
0
0
0
0
0
1
1
0
0
0
0
0
0
0
0
0
0
0
0
0
0
0
0
0
0
0
0
1
1
0
0
0
0
0
0
0
0
0
0
0
0
0
0
0
0
0
0
0
0
0
0
0
0
0
0
0
0
0
0
0
0
0
1
1
1
1
1
1
1
1
1
1
1
1
1
1
1
1
1
1
1
1
1
1
1
1
1
1
1
1
1
1
1
1
1
1
1
1
1
1
1
1
1
1
1
1
1
1
1
1
1
1
1
1
1
1
1
1
1
1
				</DataArray>
				<DataArray type="Float64" Name="h" NumberOfComponents="1" Format="ascii">
1.2138993538
1.2139103686
1.2139257652
1.2139558175
1.2139998406
1.2140568104
1.2141254039
1.2142041177
1.2142912032
1.2143847163
1.2144825892
1.2145826015
1.2146824352
1.2147796951
1.2148719481
1.2149568030
1.2150319105
1.2150950999
1.2151444928
1.2151784886
1.2151959551
1.2151959551
1.1791517135
1.1777590438
1.1778202278
1.1779439409
1.1781325218
1.1783894692
1.1787193483
1.1791276462
1.1796207224
1.1802055659
1.1808894719
1.1816796805
1.1825828408
1.1836045588
1.1847489442
1.1860180247
1.1874112948
1.1889251971
1.1905524606
1.1922816834
1.1940970541
1.1959783166
1.1979009615
1.1998367593
1.2017538697
1.2036179624
1.2053933893
1.2070440964
1.2085350450
1.2098335360
1.2109102934
1.2117405939
1.2123051748
1.2125908328
1.2125908328
1.2139103686
1.2138579081
1.2138833559
1.2139332705
1.2140064958
1.2141013122
1.2142154866
1.2143464074
1.2144910470
1.2146460371
1.2148077775
1.2149724519
1.2151361212
1.2152947922
1.2154445046
1.2155814476
1.2157020000
1.2158028987
1.2158813700
1.2159351335
1.2159626006
1.2151959551
1.1777590438
1.1764040324
1.1764733843
1.1766133933
1.1768263140
1.1771155265
1.1774854468
1.1779413769
1.1784894436
1.1791363223
1.1798888833
1.1807538293
1.1817371628
1.1828437431
1.1840768423
1.1854375411
1.1869242597
1.1885322610
1.1902530314
1.1920739012
1.1939778536
1.1959433088
1.1979446761
1.1999526734
1.2019347010
1.2038559892
1.2056806491
1.2073727073
1.2088974434
1.2102226666
1.2113197151
1.2121645122
1.2127383764
1.2130285399
1.2125908328
1.2134588978
1.2134139840
1.2134411694
1.2134945252
1.2135728275
1.2136742551
1.2137964367
1.2139365880
1.2140914742
1.2142574881
1.2144307640
1.2146071996
1.2147825567
1.2149525400
1.2151128939
1.2152595288
1.2153885703
1.2154965358
1.2155804708
1.2156379566
1.2156673111
1.2148944558
1.1779139571
1.1765605551
1.1766297031
1.1767693063
1.1769816298
1.1772700682
1.1776390541
1.1780939064
1.1786407643
1.1792863104
1.1800374186
1.1809007923
1.1818824341
1.1829872037
1.1842183705
1.1855770043
1.1870615123
1.1886671481
1.1903853594
1.1922034866
1.1941044363
1.1960666934
1.1980646535
1.2000689893
1.2020471871
1.2039645089
1.2057851678
1.2074732888
1.2089942785
1.2103160840
1.2114101850
1.2122526367
1.2128248695
1.2131141967
1.2126695538
1.2125659763
1.2125352520
1.2125658534
1.2126259738
1.2127142556
1.2128286758
1.2129665909
1.2131248750
1.2132998855
1.2134875452
1.2136834658
1.2138829839
1.2140812744
1.2142734494
1.2144546754
1.2146203164
1.2147660029
1.2148878229
1.2149824686
1.2150472508
1.2150803050
1.2142955634
1.1782153822
1.1768656469
1.1769345069
1.1770735322
1.1772849990
1.1775723156
1.1779399294
1.1783931716
1.1789381858
1.1795816486
1.1803304213
1.1811911921
1.1821699508
1.1832715473
1.1844992320
1.1858540576
1.1873344112
1.1889355042
1.1906487758
1.1924614953
1.1943565506
1.1963124921
1.1983036580
1.2003007935
1.2022714289
1.2041809783
1.2059937927
1.2076742043
1.2091878645
1.2105029928
1.2115913291
1.2124291974
1.2129982440
1.2132859395
1.2128277088
1.2112494543
1.2112383059
1.2112738756
1.2113438337
1.2114466269
1.2115799365
1.2117407212
1.2119253564
1.2121296051
1.2123487060
1.2125775118
1.2128105435
1.2130421248
1.2132665088
1.2134780237
1.2136712423
1.2138410776
1.2139829961
1.2140931783
1.2141685440
1.2142069648
1.2134053771
1.1786637769
1.1773201102
1.1773885572
1.1775267532
1.1777369891
1.1780226910
1.1783883230
1.1788392305
1.1793815587
1.1800219713
1.1807673075
1.1816242303
1.1825987094
1.1836955685
1.1849180393
1.1862671498
1.1877412449
1.1893355198
1.1910413464
1.1928459310
1.1947322349
1.1966786890
1.1986597604
1.2006462109
1.2026057119
1.2045038494
1.2063051498
1.2079742469
1.2094771713
1.2107825254
1.2118624576
1.2126936475
1.2132580539
1.2135433745
1.2130655040
1.2095358075
1.2095478850
1.2095897924
1.2096722988
1.2097935986
1.2099509933
1.2101409313
1.2103591487
1.2106006490
1.2108597969
1.2111304774
1.2114061733
1.2116801247
1.2119454924
1.2121955396
1.2124238337
1.2126243773
1.2127918488
1.2129217810
1.2130105991
1.2130558414
1.2122335001
1.1792594025
1.1779246946
1.1779925472
1.1781295533
1.1783380277
1.1786214243
1.1789842343
1.1794318255
1.1799703496
1.1806064577
1.1813469662
1.1821985102
1.1831670303
1.1842573202
1.1854726034
1.1868138444
1.1882794088
1.1898643918
1.1915601397
1.1933538769
1.1952283871
1.1971622979
1.1991300353
1.2011025805
1.2030475243
1.2049307324
1.2067170757
1.2083715696
1.2098606644
1.2111534510
1.2122225780
1.2130451905
1.2136036419
1.2138859168
1.2133832315
1.2074595889
1.2074964929
1.2075458766
1.2076431845
1.2077863108
1.2079721048
1.2081964088
1.2084542013
1.2087395865
1.2090458968
1.2093658751
1.2096917808
1.2100155779
1.2103291425
1.2106244860
1.2108939962
1.2111306092
1.2113280824
1.2114811943
1.2115857967
1.2116390427
1.2107933829
1.1800021746
1.1786799086
1.1787469132
1.1788822296
1.1790882137
1.1793683675
1.1797272291
1.1801702067
1.1807034714
1.1813336716
1.1820676090
1.1829118904
1.1838724243
1.1849540009
1.1861597815
1.1874907764
1.1889452156
1.1905182983
1.1922012089
1.1939811199
1.1958409358
1.1977593517
1.1997106739
1.2016659770
1.2035932208
1.2054584042
1.2072267399
1.2088636859
1.2103362111
1.2116139757
1.2126702108
1.2134826038
1.2140339673
1.2143126200
1.2137810816
1.2050622547
1.2051234361
1.2051811691
1.2052950056
1.2054625013
1.2056799964
1.2059426506
1.2062445919
1.2065789153
1.2069377970
1.2073127021
1.2076945226
1.2080737979
1.2084409716
1.2087866626
1.2091019492
1.2093785891
1.2096093277
1.2097881208
1.2099102001
1.2099723060
1.2091023131
1.1808920754
1.1795863761
1.1796521859
1.1797851334
1.1799876449
1.1802633043
1.1806167299
1.1810534013
1.1815795314
1.1822017863
1.1829269677
1.1837616618
1.1847117548
1.1857820485
1.1869756583
1.1882935874
1.1897341306
1.1912922828
1.1929593975
1.1947226443
1.1965646869
1.1984644419
1.2003964036
1.2023316271
1.2042382687
1.2060826141
1.2078302494
1.2094471177
1.2109007563
1.2121614500
1.2132030693
1.2140038966
1.2145472491
1.2148218122
1.2142587480
1.2023909290
1.2024737703
1.2025404425
1.2026719754
1.2028655583
1.2031169810
1.2034206666
1.2037698251
1.2041564641
1.2045715146
1.2050050671
1.2054465432
1.2058849532
1.2063092062
1.2067084344
1.2070723258
1.2073913972
1.2076573404
1.2078632686
1.2080037900
1.2080752392
1.2071815788
1.1819284692
1.1806441114
1.1807082673
1.1808379531
1.1810357105
1.1813052580
1.1816513468
1.1820795715
1.1825962274
1.1832080192
1.1839217676
1.1847440809
1.1856808168
1.1867367681
1.1879151564
1.1892168187
1.1906401960
1.1921804411
1.1938285082
1.1955717238
1.1973930561
1.1992713460
1.2011811099
1.2030935303
1.2049769764
1.2067980398
1.2085227107
1.2101174336
1.2115503383
1.2127923618
1.2138180428
1.2146062858
1.2151409358
1.2154110622
1.2148153436
1.1994970883
1.1995971717
1.1996730917
1.1998229322
1.2000434996
1.2003300086
1.2006761121
1.2010740607
1.2015147255
1.2019877358
1.2024817456
1.2029846412
1.2034838378
1.2039666509
1.2044206766
1.2048341815
1.2051964327
1.2054980855
1.2057314511
1.2058905703
1.2059714269
1.2050564651
1.1831098395
1.1818521983
1.1819141040
1.1820393773
1.1822307446
1.1824921397
1.1828285195
1.1832456604
1.1837499969
1.1843482909
1.1850474240
1.1858540397
1.1867740264
1.1878121181
1.1889716441
1.1902536827
1.1916563699
1.1931749557
1.1948007042
1.1965208467
1.1983184054
1.2001723531
1.2020572422
1.2039443922
1.2058023903
1.2075981380
1.2092980356
1.2108690377
1.2122798598
1.2135020891
1.2145109327
1.2152859174
1.2158114168
1.2160768862
1.2154490524
1.1964345930
1.1965461249
1.1966313399
1.1967995829
1.1970472714
1.1973690347
1.1977577419
1.1982046646
1.1986995132
1.1992305858
1.1997850655
1.2003492671
1.2009089769
1.2014498906
1.2019580592
1.2024203420
1.2028248050
1.2031611513
1.2034210080
1.2035979849
1.2036878426
1.2027555353
1.1844341154
1.1832090486
1.1832679308
1.1833873125
1.1835702140
1.1838209021
1.1841446471
1.1845474976
1.1850360820
1.1856173051
1.1862980650
1.1870850668
1.1879843397
1.1890006941
1.1901373964
1.1913956556
1.1927738764
1.1942672333
1.1958671076
1.1975608304
1.1993315106
1.2011582931
1.2030157825
1.2048754462
1.2067060832
1.2084748933
1.2101486735
1.2116948666
1.2130827521
1.2142845348
1.2152760614
1.2160374547
1.2165535962
1.2168143133
1.2161566264
1.1932579308
1.1933742448
1.1934685798
1.1936548821
1.1939291824
1.1942855275
1.1947160031
1.1952109000
1.1957587606
1.1963465393
1.1969599314
1.1975836603
1.1982018666
1.1987986213
1.1993584481
1.1998668532
1.2003108056
1.2006792185
1.2009632519
1.2011563355
1.2012542443
1.2003099202
1.1858979939
1.1847116798
1.1847665321
1.1848781229
1.1850499370
1.1852867531
1.1855943094
1.1859790264
1.1864477919
1.1870077255
1.1876658539
1.1884289236
1.1893030253
1.1902931776
1.1914028016
1.1926331224
1.1939826915
1.1954468395
1.1970171043
1.1986809606
1.2004217273
1.2022185179
1.2040462538
1.2058764732
1.2076781813
1.2094188489
1.2110656284
1.2125864119
1.2139509890
1.2151321295
1.2161062639
1.2168540602
1.2173608677
1.2176168574
1.2169332703
1.1900207517
1.1901348491
1.1902379600
1.1904416450
1.1907415568
1.1911311708
1.1916018007
1.1921427631
1.1927414345
1.1933834189
1.1940529089
1.1947330172
1.1954062211
1.1960549634
1.1966622670
1.1972123642
1.1976912827
1.1980873945
1.1983917387
1.1985979807
1.1987023242
1.1977523656
1.1874966117
1.1863553354
1.1864048226
1.1865061466
1.1866635371
1.1868825587
1.1871696363
1.1875317178
1.1879760465
1.1885099456
1.1891406708
1.1898750754
1.1907193587
1.1916786292
1.1927564575
1.1939542456
1.1952707534
1.1967015292
1.1982383272
1.1998688251
1.2015766122
1.2033407725
1.2051365798
1.2069356682
1.2087072224
1.2104189444
1.2120382885
1.2135335244
1.2148748794
1.2160356085
1.2169926498
1.2177271456
1.2182248547
1.2184762518
1.2177722908
1.1867740384
1.1868791044
1.1869905387
1.1872107164
1.1875349257
1.1879560863
1.1884647561
1.1890492878
1.1896958916
1.1903888092
1.1911107036
1.1918430385
1.1925665863
1.1932621331
1.1939112090
1.1944968508
1.1950043360
1.1954218358
1.1957407781
1.1959557231
1.1960640038
1.1951154517
1.1892238472
1.1881337389
1.1881760285
1.1882637879
1.1884024674
1.1885988406
1.1888603210
1.1891945783
1.1896093081
1.1901121025
1.1907103387
1.1914110050
1.1922203798
1.1931437284
1.1941848089
1.1953452626
1.1966241265
1.1980172395
1.1995166456
1.2011102939
1.2027820887
1.2045111994
1.2062730342
1.2080395648
1.2097800604
1.2114624034
1.2130542759
1.2145242401
1.2158428625
1.2169837851
1.2179243573
1.2186461088
1.2191351371
1.2193821709
1.2186647247
1.1835648351
1.1836546769
1.1837739392
1.1840096367
1.1843567075
1.1848075341
1.1853519350
1.1859773049
1.1866686790
1.1874089066
1.1881790659
1.1889588939
1.1897273649
1.1904635190
1.1911473419
1.1917607103
1.1922883433
1.1927186325
1.1930441098
1.1932612445
1.1933696850
1.1924298220
1.1910719476
1.1900387089
1.1900711920
1.1901408920
1.1902552946
1.1904230288
1.1906529015
1.1909534883
1.1913329873
1.1917992047
1.1923596137
1.1930212623
1.1937905099
1.1946727821
1.1956720694
1.1967903132
1.1980269045
1.1993780547
1.2008361755
1.2023895568
1.2040224770
1.2057142444
1.2074404546
1.2091732335
1.2108820795
1.2125349534
1.2140996791
1.2155450080
1.2168417338
1.2179637702
1.2188887682
1.2195985458
1.2200794593
1.2203224361
1.2195994513
1.1804355536
1.1805049403
1.1806315547
1.1808818388
1.1812503963
1.1817290912
1.1823070169
1.1829706087
1.1837037025
1.1844877001
1.1853019989
1.1861244703
1.1869321152
1.1877020334
1.1884124954
1.1890441396
1.1895812484
1.1900128925
1.1903336533
1.1905434407
1.1906462310
1.1897221738
1.1930316344
1.1920602711
1.1920790495
1.1921243543
1.1922070968
1.1923387235
1.1925299362
1.1927903682
1.1931286630
1.1935527136
1.1940699511
1.1946873701
1.1954113599
1.1962475011
1.1972000518
1.1982713179
1.1994611273
1.2007661504
1.2021792546
1.2036891342
1.2052805207
1.2069329274
1.2086220980
1.2103203382
1.2119972472
1.2136208819
1.2151591031
1.2165807385
1.2178566858
1.2189610062
1.2198715346
1.2205702718
1.2210437485
1.2212830321
1.2205631298
1.1774231181
1.1774679960
1.1776015578
1.1778656378
1.1782545225
1.1787595773
1.1793691827
1.1800688062
1.1808410467
1.1816657772
1.1825205703
1.1833812181
1.1842224595
1.1850191041
1.1857473371
1.1863862547
1.1869196203
1.1873375564
1.1876378356
1.1878260435
1.1879138993
1.1870122458
1.1950931454
1.1941877218
1.1941865917
1.1941981889
1.1942392315
1.1943253679
1.1944697302
1.1946830142
1.1949740596
1.1953505392
1.1958195697
1.1963879055
1.1970618649
1.1978471606
1.1987483505
1.1997681746
1.2009069871
1.2021620156
1.2035266684
1.2049901418
1.2065376429
1.2081489619
1.2098000278
1.2114632452
1.2131082931
1.2147032136
1.2162158410
1.2176149656
1.2188714629
1.2199594150
1.2208567210
1.2215454588
1.2220122486
1.2222482396
1.2215402692
1.1745586747
1.1745762685
1.1747164864
1.1749937975
1.1754021923
1.1759325590
1.1765725799
1.1773067476
1.1781163807
1.1789797226
1.1798723341
1.1807676328
1.1816376735
1.1824544135
1.1831912818
1.1838251351
1.1843386929
1.1847231396
1.1849805751
1.1851253349
1.1851826168
1.1843091749
1.1972475684
1.1964110267
1.1963794294
1.1963430383
1.1963284069
1.1963572258
1.1964454234
1.1966043813
1.1968425158
1.1971666872
1.1975832441
1.1980984116
1.1987182893
1.1994486866
1.2002944985
1.2012589785
1.2023431102
1.2035447813
1.2048580476
1.2062726841
1.2077743922
1.2093433134
1.2109555585
1.2125836339
1.2141972016
1.2157642274
1.2172524076
1.2186303919
1.2198689150
1.2209419586
1.2218273713
1.2225072071
1.2229680952
1.2232012115
1.2225137682
1.1718678176
1.1718566375
1.1720033607
1.1722936165
1.1727211231
1.1732763224
1.1739462277
1.1747143648
1.1755607357
1.1764618555
1.1773910634
1.1783190456
1.1792146160
1.1800460761
1.1807830044
1.1813986955
1.1818734643
1.1821986375
1.1823811616
1.1824478223
1.1824465885
1.1816061950
1.1994899802
1.1987240311
1.1986427385
1.1985355810
1.1984454802
1.1984021775
1.1984240490
1.1985219617
1.1987026432
1.1989711310
1.1993323209
1.1997915112
1.2003544048
1.2010268789
1.2018142222
1.2027203029
1.2037468538
1.2048925423
1.2061521716
1.2075162203
1.2089707841
1.2104964949
1.2120696528
1.2136628227
1.2152456129
1.2167858097
1.2182508832
1.2196092350
1.2208313484
1.2218909948
1.2227658688
1.2234379095
1.2238936826
1.2241243418
1.2234652811
1.1693706478
1.1693304089
1.1694836334
1.1697868336
1.1702334888
1.1708136430
1.1715136953
1.1723162378
1.1731999658
1.1741395975
1.1751060681
1.1760669684
1.1769872393
1.1778304727
1.1785608461
1.1791458597
1.1795606002
1.1797936520
1.1798551915
1.1797874150
1.1796746896
1.1788711261
1.2018261577
1.2011312727
1.2009629593
1.2007475435
1.2005537865
1.2004203604
1.2003657679
1.2003975637
1.2005184935
1.2007302189
1.2010352535
1.2014375003
1.2019420996
1.2025550146
1.2032820322
1.2041277742
1.2050948663
1.2061828836
1.2073874793
1.2087001639
1.2101068241
1.2115890720
1.2131233646
1.2146822777
1.2162352923
1.2177499520
1.2191934078
1.2205337189
1.2217410208
1.2227887787
1.2236544451
1.2243197663
1.2247711840
1.2249997875
1.2243757709
1.1670821042
1.1670135965
1.1671734539
1.1674898602
1.1679561008
1.1685618941
1.1692931111
1.1701315066
1.1710545455
1.1720351851
1.1730418741
1.1740388398
1.1749865383
1.1758426988
1.1765640595
1.1771091183
1.1774427180
1.1775439275
1.1774191916
1.1771236164
1.1767930605
1.1760290229
1.2042854004
1.2036609206
1.2033287686
1.2029421411
1.2026052688
1.2023614676
1.2022224521
1.2021868581
1.2022497077
1.2024071580
1.2026582524
1.2030050662
1.2034521184
1.2040055880
1.2046719554
1.2054567921
1.2063637935
1.2073935788
1.2085427565
1.2098037716
1.2111630112
1.2126023059
1.2140985128
1.2156242408
1.2171487983
1.2186394165
1.2200628571
1.2213867609
1.2225808361
1.2236181667
1.2244758924
1.2251355063
1.2255832772
1.2258101982
1.2252263101
1.1650125946
1.1649175059
1.1650841798
1.1654141886
1.1659006865
1.1665331710
1.1672971376
1.1681736825
1.1691392395
1.1701652051
1.1712176817
1.1722575190
1.1732403610
1.1741170830
1.1748348040
1.1753386416
1.1755755078
1.1755021589
1.1751023602
1.1744233566
1.1736501872
1.1729273127
1.2069469174
1.2063912558
1.2057288121
1.2050649912
1.2045329934
1.2041604894
1.2039359584
1.2038391991
1.2038521100
1.2039629375
1.2041662966
1.2044622718
1.2048549759
1.2053511480
1.2059582992
1.2066832343
1.2075309382
1.2085032394
1.2095978119
1.2108080067
1.2121208466
1.2135185148
1.2149780840
1.2164721667
1.2179698940
1.2194381512
1.2208432620
1.2221523939
1.2233347747
1.2243630540
1.2252140099
1.2258688391
1.2263136036
1.2265391767
1.2259986396
1.1631684493
1.1630492000
1.1632228461
1.1635668477
1.1640743167
1.1647346722
1.1655332360
1.1664507095
1.1674628379
1.1685398752
1.1696460560
1.1707393465
1.1717709472
1.1726847539
1.1734169049
1.1738949635
1.1740377235
1.1737578357
1.1729742489
1.1716546109
1.1699405259
1.1692593135
1.2099961585
1.2095070731
1.2081369887
1.2070216963
1.2062370208
1.2057322003
1.2054377878
1.2052986805
1.2052793384
1.2053580602
1.2055247449
1.2057779683
1.2061221711
1.2065653456
1.2071165741
1.2077842831
1.2085750158
1.2094919808
1.2105340572
1.2116953839
1.2129637958
1.2143218453
1.2157467916
1.2172112227
1.2186840536
1.2201318000
1.2215203245
1.2228162968
1.2239884373
1.2250089333
1.2258541745
1.2265050370
1.2269473563
1.2271718718
1.2266758805
1.1615524887
1.1614120948
1.1615928098
1.1619510884
1.1624800968
1.1631693341
1.1640041857
1.1649652961
1.1660281927
1.1671626447
1.1683319053
1.1694922463
1.1705919512
1.1715696787
1.1723520006
1.1728482173
1.1729409521
1.1724702850
1.1712101838
1.1688493583
1.1650479928
1.1644079229
1.2138478873
1.2134226844
1.2104574103
1.2086255301
1.2075578565
1.2069616670
1.2066488206
1.2065096001
1.2064872085
1.2065555463
1.2067016791
1.2069236812
1.2072277377
1.2076242408
1.2081246199
1.2087394123
1.2094770189
1.2103421991
1.2113352334
1.2124507118
1.2136775735
1.2149987492
1.2163916612
1.2178288375
1.2192789626
1.2207081788
1.2220818876
1.2233662617
1.2245295136
1.2255433669
1.2263838179
1.2270314167
1.2274717656
1.2276954656
1.2272431621
1.1601648017
1.1600067295
1.1601944757
1.1605670463
1.1611177525
1.1618363277
1.1627084623
1.1637151066
1.1648321157
1.1660295947
1.1672710544
1.1685129863
1.1697037608
1.1707815132
1.1716705440
1.1722722750
1.1724440897
1.1719492992
1.1703323267
1.1666003183
1.1584124004
1.1578187650
1.2194160614
1.2190513399
1.2123466238
1.2094810592
1.2082364302
1.2076993940
1.2074831004
1.2074206198
1.2074418887
1.2075261644
1.2076709733
1.2078757137
1.2081497800
1.2085074796
1.2089635465
1.2095311589
1.2102208506
1.2110390503
1.2119875091
1.2130613893
1.2142504786
1.2155382467
1.2169022434
1.2183149239
1.2197447499
1.2211575081
1.2225181647
1.2237924228
1.2249480153
1.2259562245
1.2267926697
1.2274375862
1.2278763498
1.2280994251
1.2276880069
1.1590035296
1.1588315703
1.1590261056
1.1594125582
1.1599844530
1.1607318787
1.1616410273
1.1626934660
1.1638658686
1.1651294643
1.1664493139
1.1677843617
1.1690871876
1.1703035950
1.1713732373
1.1722303086
1.1728062084
1.1730413238
1.1729230698
1.1726087544
1.1729086264
1.1803780772
1.1858162272
1.1786725476
1.1943328009
1.2046263460
1.2064416265
1.2071102286
1.2074429669
1.2076673371
1.2078438063
1.2079914120
1.2081228772
1.2082555092
1.2084157700
1.2086170689
1.2088717017
1.2091991570
1.2096183982
1.2101456854
1.2107938772
1.2115711542
1.2124801760
1.2135175967
1.2146736522
1.2159321874
1.2172708885
1.2186621632
1.2200742818
1.2214727202
1.2228220625
1.2240875985
1.2252366346
1.2262400569
1.2270731437
1.2277158422
1.2281533187
1.2283759108
1.2280008598
1.1580653775
1.1578835603
1.1580843870
1.1584837682
1.1590754730
1.1598500029
1.1607941527
1.1618902724
1.1631161128
1.1644444276
1.1658424010
1.1672721922
1.1686914448
1.1700540694
1.1713133013
1.1724263361
1.1733629970
1.1741257031
1.1747907287
1.1756002847
1.1772237015
1.1819056538
1.1860677568
1.1788758366
1.1909054021
1.1992832861
1.2031181589
1.2052877361
1.2065887117
1.2074095452
1.2079461604
1.2083069378
1.2085594625
1.2087527101
1.2089348538
1.2091398794
1.2093836089
1.2096888232
1.2100789643
1.2105734276
1.2111873247
1.2119304411
1.2128064612
1.2138132657
1.2149416033
1.2161755774
1.2174929768
1.2188661744
1.2202632937
1.2216495674
1.2229892755
1.2242473742
1.2253908191
1.2263901663
1.2272204047
1.2278612338
1.2282976366
1.2285198385
1.2281752622
1.1573464284
1.1571589557
1.1573652931
1.1577760410
1.1583851961
1.1591836542
1.1601587958
1.1612937475
1.1625673272
1.1639538212
1.1654225019
1.1669385464
1.1684640256
1.1699592626
1.1713869384
1.1727177586
1.1739392766
1.1750732065
1.1762032255
1.1775210814
1.1794135537
1.1825824450
1.1854837572
1.1851029271
1.1918435095
1.1977098142
1.2015516242
1.2041615465
1.2059217942
1.2071051635
1.2078969272
1.2084248668
1.2087795828
1.2090287502
1.2092326525
1.2094427481
1.2096814419
1.2099713338
1.2103398965
1.2108092672
1.2113963021
1.2121123658
1.2129627362
1.2139455990
1.2150521064
1.2162665874
1.2175669344
1.2189255211
1.2203103892
1.2216866161
1.2230182763
1.2242700916
1.2254087624
1.2264045968
1.2272323607
1.2278715561
1.2283070168
1.2285288747
1.2282079219
1.1568431505
1.1566543399
1.1568651336
1.1572850917
1.1579083784
1.1587261891
1.1597263607
1.1608926296
1.1622046309
1.1636378771
1.1651632738
1.1667482672
1.1683580826
1.1699572543
1.1715140544
1.1730060911
1.1744279381
1.1758049274
1.1772106237
1.1787862610
1.1807555501
1.1833578983
1.1859916247
1.1878962054
1.1925890753
1.1971472894
1.2007303313
1.2034339322
1.2053963166
1.2067799864
1.2077315747
1.2083730126
1.2088011874
1.2090928260
1.2093142008
1.2095284900
1.2097657136
1.2100459820
1.2103996360
1.2108510235
1.2114191928
1.2121167812
1.2129493592
1.2139153899
1.2150062948
1.2162065868
1.2174942700
1.2188417670
1.2202171172
1.2215853453
1.2229104346
1.2241569876
1.2252915593
1.2262843052
1.2271098443
1.2277475402
1.2281821169
1.2284036346
1.2280989517
1.1565542162
1.1563684749
1.1565823873
1.1570087817
1.1576418790
1.1584730030
1.1594902236
1.1606776613
1.1620156166
1.1634801673
1.1650430840
1.1666730821
1.1683371363
1.1700020133
1.1716387607
1.1732280354
1.1747666701
1.1762790043
1.1778282276
1.1795229028
1.1815086577
1.1838967907
1.1864774188
1.1890998960
1.1929601324
1.1968601941
1.2002160622
1.2029039315
1.2049415380
1.2064216768
1.2074589674
1.2081650653
1.2086367525
1.2089543045
1.2091859752
1.2094011981
1.2096373501
1.2099121561
1.2102579551
1.2107004364
1.2112594511
1.2119476390
1.2127705964
1.2137270607
1.2148086698
1.2160000983
1.2172794786
1.2186193373
1.2199877984
1.2213499450
1.2226697932
1.2239119510
1.2250429475
1.2260328889
1.2268563309
1.2274925632
1.2279262438
1.2281473858
1.2278515915
1.1564809572
1.1563025486
1.1565182871
1.1569484174
1.1575871166
1.1584256609
1.1594520716
1.1606504039
1.1620009786
1.1634799617
1.1650592339
1.1667077361
1.1683928146
1.1700817304
1.1717461725
1.1733674707
1.1749427012
1.1764949536
1.1780820494
1.1797981691
1.1817600179
1.1840493646
1.1865942213
1.1893891379
1.1929293249
1.1965433141
1.1997684584
1.2024211496
1.2044718468
1.2059819165
1.2070497713
1.2077807713
1.2082704762
1.2086000330
1.2088383044
1.2090572466
1.2092976142
1.2095753839
1.2099231600
1.2103669661
1.2109262018
1.2116135166