<VTKFile type="UnstructuredGrid" version="0.1">
	<UnstructuredGrid>
		<Piece NumberOfPoints="13548" NumberOfCells="3387">
			<CellData>
				<DataArray type="Int32" Name="ghost" NumberOfComponents="1" Format="ascii">
1
1
1
1
1
1
1
1
1
1
1
1
1
1
1
1
1
1
1
1
1
1
1
1
1
1
1
1
1
1
1
1
1
1
1
1
1
1
1
1
1
1
1
1
1
1
1
1
1
1
1
1
1
1
1
1
1
1
0
0
0
0
0
0
0
0
0
0
0
0
0
0
0
0
0
0
0
0
1
1
0
0
0
0
0
0
0
0
0
0
0
0
0
0
0
0
0
0
0
0
0
0
0
0
0
0
0
0
0
0
0
0
0
1
1
0
0
0
0
0
0
0
0
0
0
0
0
0
0
0
0
0
0
0
0
1
1
0
0
0
0
0
0
0
0
0
0
0
0
0
0
0
0
0
0
0
0
0
0
0
0
0
0
0
0
0
0
0
0
0
1
1
0
0
0
0
0
0
0
0
0
0
0
0
0
0
0
0
0
0
0
0
1
1
0
0
0
0
0
0
0
0
0
0
0
0
0
0
0
0
0
0
0
0
0
0
0
0
0
0
0
0
0
0
0
0
0
1
1
0
0
0
0
0
0
0
0
0
0
0
0
0
0
0
0
0
0
0
0
1
1
0
0
0
0
0
0
0
0
0
0
0
0
0
0
0
0
0
0
0
0
0
0
0
0
0
0
0
0
0
0
0
0
0
1
1
0
0
0
0
0
0
0
0
0
0
0
0
0
0
0
0
0
0
0
0
1
1
0
0
0
0
0
0
0
0
0
0
0
0
0
0
0
0
0
0
0
0
0
0
0
0
0
0
0
0
0
0
0
0
0
1
1
0
0
0
0
0
0
0
0
0
0
0
0
0
0
0
0
0
0
0
0
1
1
0
0
0
0
0
0
0
0
0
0
0
0
0
0
0
0
0
0
0
0
0
0
0
0
0
0
0
0
0
0
0
0
0
1
1
0
0
0
0
0
0
0
0
0
0
0
0
0
0
0
0
0
0
0
0
1
1
0
0
0
0
0
0
0
0
0
0
0
0
0
0
0
0
0
0
0
0
0
0
0
0
0
0
0
0
0
0
0
0
0
1
1
0
0
0
0
0
0
0
0
0
0
0
0
0
0
0
0
0
0
0
0
1
1
0
0
0
0
0
0
0
0
0
0
0
0
0
0
0
0
0
0
0
0
0
0
0
0
0
0
0
0
0
0
0
0
0
1
1
0
0
0
0
0
0
0
0
0
0
0
0
0
0
0
0
0
0
0
0
1
1
0
0
0
0
0
0
0
0
0
0
0
0
0
0
0
0
0
0
0
0
0
0
0
0
0
0
0
0
0
0
0
0
0
1
1
0
0
0
0
0
0
0
0
0
0
0
0
0
0
0
0
0
0
0
0
1
1
0
0
0
0
0
0
0
0
0
0
0
0
0
0
0
0
0
0
0
0
0
0
0
0
0
0
0
0
0
0
0
0
0
1
1
0
0
0
0
0
0
0
0
0
0
0
0
0
0
0
0
0
0
0
0
1
1
0
0
0
0
0
0
0
0
0
0
0
0
0
0
0
0
0
0
0
0
0
0
0
0
0
0
0
0
0
0
0
0
0
1
1
0
0
0
0
0
0
0
0
0
0
0
0
0
0
0
0
0
0
0
0
1
1
0
0
0
0
0
0
0
0
0
0
0
0
0
0
0
0
0
0
0
0
0
0
0
0
0
0
0
0
0
0
0
0
0
1
1
0
0
0
0
0
0
0
0
0
0
0
0
0
0
0
0
0
0
0
0
1
1
0
0
0
0
0
0
0
0
0
0
0
0
0
0
0
0
0
0
0
0
0
0
0
0
0
0
0
0
0
0
0
0
0
1
1
0
0
0
0
0
0
0
0
0
0
0
0
0
0
0
0
0
0
0
0
1
1
0
0
0
0
0
0
0
0
0
0
0
0
0
0
0
0
0
0
0
0
0
0
0
0
0
0
0
0
0
0
0
0
0
1
1
0
0
0
0
0
0
0
0
0
0
0
0
0
0
0
0
0
0
0
0
1
1
0
0
0
0
0
0
0
0
0
0
0
0
0
0
0
0
0
0
0
0
0
0
0
0
0
0
0
0
0
0
0
0
0
1
1
0
0
0
0
0
0
0
0
0
0
0
0
0
0
0
0
0
0
0
0
1
1
0
0
0
0
0
0
0
0
0
0
0
0
0
0
0
0
0
0
0
0
0
0
0
0
0
0
0
0
0
0
0
0
0
1
1
0
0
0
0
0
0
0
0
0
0
0
0
0
0
0
0
0
0
0
0
1
1
0
0
0
0
0
0
0
0
0
0
0
0
0
0
0
0
0
0
0
0
0
0
0
0
0
0
0
0
0
0
0
0
0
1
1
0
0
0
0
0
0
0
0
0
0
0
0
0
0
0
0
0
0
0
0
1
1
0
0
0
0
0
0
0
0
0
0
0
0
0
0
0
0
0
0
0
0
0
0
0
0
0
0
0
0
0
0
0
0
0
1
1
0
0
0
0
0
0
0
0
0
0
0
0
0
0
0
0
0
0
0
0
1
1
0
0
0
0
0
0
0
0
0
0
0
0
0
0
0
0
0
0
0
0
0
0
0
0
0
0
0
0
0
0
0
0
0
1
1
0
0
0
0
0
0
0
0
0
0
0
0
0
0
0
0
0
0
0
0
1
1
0
0
0
0
0
0
0
0
0
0
0
0
0
0
0
0
0
0
0
0
0
0
0
0
0
0
0
0
0
0
0
0
0
1
1
0
0
0
0
0
0
0
0
0
0
0
0
0
0
0
0
0
0
0
0
1
1
0
0
0
0
0
0
0
0
0
0
0
0
0
0
0
0
0
0
0
0
0
0
0
0
0
0
0
0
0
0
0
0
0
1
1
0
0
0
0
0
0
0
0
0
0
0
0
0
0
0
0
0
0
0
0
1
1
0
0
0
0
0
0
0
0
0
0
0
0
0
0
0
0
0
0
0
0
0
0
0
0
0
0
0
0
0
0
0
0
0
1
1
0
0
0
0
0
0
0
0
0
0
0
0
0
0
0
0
0
0
0
0
1
1
0
0
0
0
0
0
0
0
0
0
0
0
0
0
0
0
0
0
0
0
0
0
0
0
0
0
0
0
0
0
0
0
0
1
1
0
0
0
0
0
0
0
0
0
0
0
0
0
0
0
0
0
0
0
0
1
1
0
0
0
0
0
0
0
0
0
0
0
0
0
0
0
0
0
0
0
0
0
0
0
0
0
0
0
0
0
0
0
0
0
1
1
0
0
0
0
0
0
0
0
0
0
0
0
0
0
0
0
0
0
0
0
0
1
1
0
0
0
0
0
0
0
0
0
0
0
0
0
0
0
0
0
0
0
0
0
0
0
0
0
0
0
0
0
0
0
0
0
0
1
1
0
0
0
0
0
0
0
0
0
0
0
0
0
0
0
0
0
0
0
0
0
0
0
0
0
0
0
0
0
0
0
0
0
0
0
0
0
0
0
0
0
0
0
0
0
0
0
0
0
0
0
0
0
0
0
0
0
1
1
0
0
0
0
0
0
0
0
0
0
0
0
0
0
0
0
0
0
0
0
0
0
0
0
0
0
0
0
0
0
0
0
0
0
0
0
0
0
0
0
0
0
0
0
0
0
0
0
0
0
0
0
0
0
0
0
0
1
1
0
0
0
0
0
0
0
0
0
0
0
0
0
0
0
0
0
0
0
0
0
0
0
0
0
0
0
0
0
0
0
0
0
0
0
0
0
0
0
0
0
0
0
0
0
0
0
0
0
0
0
0
0
0
0
0
0
1
1
0
0
0
0
0
0
0
0
0
0
0
0
0
0
0
0
0
0
0
0
0
0
0
0
0
0
0
0
0
0
0
0
0
0
0
0
0
0
0
0
0
0
0
0
0
0
0
0
0
0
0
0
0
0
0
0
0
1
1
0
0
0
0
0
0
0
0
0
0
0
0
0
0
0
0
0
0
0
0
0
0
0
0
0
0
0
0
0
0
0
0
0
0
0
0
0
0
0
0
0
0
0
0
0
0
0
0
0
0
0
0
0
0
0
0
0
1
1
0
0
0
0
0
0
0
0
0
0
0
0
0
0
0
0
0
0
0
0
0
0
0
0
0
0
0
0
0
0
0
0
0
0
0
0
0
0
0
0
0
0
0
0
0
0
0
0
0
0
0
0
0
0
0
0
0
1
1
0
0
0
0
0
0
0
0
0
0
0
0
0
0
0
0
0
0
0
0
0
0
0
0
0
0
0
0
0
0
0
0
0
0
0
0
0
0
0
0
0
0
0
0
0
0
0
0
0
0
0
0
0
0
0
0
0
1
1
0
0
0
0
0
0
0
0
0
0
0
0
0
0
0
0
0
0
0
0
0
0
0
0
0
0
0
0
0
0
0
0
0
0
0
0
0
0
0
0
0
0
0
0
0
0
0
0
0
0
0
0
0
0
0
0
0
1
1
0
0
0
0
0
0
0
0
0
0
0
0
0
0
0
0
0
0
0
0
0
0
0
0
0
0
0
0
0
0
0
0
0
0
0
0
0
0
0
0
0
0
0
0
0
0
0
0
0
0
0
0
0
0
0
0
0
1
1
0
0
0
0
0
0
0
0
0
0
0
0
0
0
0
0
0
0
0
0
0
0
0
0
0
0
0
0
0
0
0
0
0
0
0
0
0
0
0
0
0
0
0
0
0
0
0
0
0
0
0
0
0
0
0
0
0
1
1
0
0
0
0
0
0
0
0
0
0
0
0
0
0
0
0
0
0
0
0
0
1
1
0
0
0
0
0
0
0
0
0
0
0
0
0
0
0
0
0
0
0
0
0
0
0
0
0
0
0
0
0
0
0
0
0
0
1
1
0
0
0
0
0
0
0
0
0
0
0
0
0
0
0
0
0
0
0
0
1
1
0
0
0
0
0
0
0
0
0
0
0
0
0
0
0
0
0
0
0
0
0
0
0
0
0
0
0
0
0
0
0
0
0
1
1
0
0
0
0
0
0
0
0
0
0
0
0
0
0
0
0
0
0
0
0
1
1
0
0
0
0
0
0
0
0
0
0
0
0
0
0
0
0
0
0
0
0
0
0
0
0
0
0
0
0
0
0
0
0
0
1
1
0
0
0
0
0
0
0
0
0
0
0
0
0
0
0
0
0
0
0
0
1
1
0
0
0
0
0
0
0
0
0
0
0
0
0
0
0
0
0
0
0
0
0
0
0
0
0
0
0
0
0
0
0
0
0
1
1
0
0
0
0
0
0
0
0
0
0
0
0
0
0
0
0
0
0
0
0
1
1
0
0
0
0
0
0
0
0
0
0
0
0
0
0
0
0
0
0
0
0
0
0
0
0
0
0
0
0
0
0
0
0
0
1
1
0
0
0
0
0
0
0
0
0
0
0
0
0
0
0
0
0
0
0
0
1
1
0
0
0
0
0
0
0
0
0
0
0
0
0
0
0
0
0
0
0
0
0
0
0
0
0
0
0
0
0
0
0
0
0
1
1
0
0
0
0
0
0
0
0
0
0
0
0
0
0
0
0
0
0
0
0
1
1
0
0
0
0
0
0
0
0
0
0
0
0
0
0
0
0
0
0
0
0
0
0
0
0
0
0
0
0
0
0
0
0
0
1
1
0
0
0
0
0
0
0
0
0
0
0
0
0
0
0
0
0
0
0
0
1
1
0
0
0
0
0
0
0
0
0
0
0
0
0
0
0
0
0
0
0
0
0
0
0
0
0
0
0
0
0
0
0
0
0
1
1
0
0
0
0
0
0
0
0
0
0
0
0
0
0
0
0
0
0
0
0
1
1
0
0
0
0
0
0
0
0
0
0
0
0
0
0
0
0
0
0
0
0
0
0
0
0
0
0
0
0
0
0
0
0
0
1
1
0
0
0
0
0
0
0
0
0
0
0
0
0
0
0
0
0
0
0
0
1
1
0
0
0
0
0
0
0
0
0
0
0
0
0
0
0
0
0
0
0
0
0
0
0
0
0
0
0
0
0
0
0
0
0
1
1
0
0
0
0
0
0
0
0
0
0
0
0
0
0
0
0
0
0
0
0
1
1
0
0
0
0
0
0
0
0
0
0
0
0
0
0
0
0
0
0
0
0
0
0
0
0
0
0
0
0
0
0
0
0
0
1
1
0
0
0
0
0
0
0
0
0
0
0
0
0
0
0
0
0
0
0
0
1
1
0
0
0
0
0
0
0
0
0
0
0
0
0
0
0
0
0
0
0
0
0
0
0
0
0
0
0
0
0
0
0
0
0
1
1
0
0
0
0
0
0
0
0
0
0
0
0
0
0
0
0
0
0
0
0
1
1
0
0
0
0
0
0
0
0
0
0
0
0
0
0
0
0
0
0
0
0
0
0
0
0
0
0
0
0
0
0
0
0
0
1
1
0
0
0
0
0
0
0
0
0
0
0
0
0
0
0
0
0
0
0
0
1
1
0
0
0
0
0
0
0
0
0
0
0
0
0
0
0
0
0
0
0
0
0
0
0
0
0
0
0
0
0
0
0
0
0
1
1
0
0
0
0
0
0
0
0
0
0
0
0
0
0
0
0
0
0
0
0
1
1
0
0
0
0
0
0
0
0
0
0
0
0
0
0
0
0
0
0
0
0
0
0
0
0
0
0
0
0
0
0
0
0
0
1
1
0
0
0
0
0
0
0
0
0
0
0
0
0
0
0
0
0
0
0
0
1
1
0
0
0
0
0
0
0
0
0
0
0
0
0
0
0
0
0
0
0
0
0
0
0
0
0
0
0
0
0
0
0
0
0
1
1
0
0
0
0
0
0
0
0
0
0
0
0
0
0
0
0
0
0
0
0
1
1
0
0
0
0
0
0
0
0
0
0
0
0
0
0
0
0
0
0
0
0
0
0
0
0
0
0
0
0
0
0
0
0
0
1
1
0
0
0
0
0
0
0
0
0
0
0
0
0
0
0
0
0
0
0
0
1
1
0
0
0
0
0
0
0
0
0
0
0
0
0
0
0
0
0
0
0
0
0
0
0
0
0
0
0
0
0
0
0
0
0
1
1
0
0
0
0
0
0
0
0
0
0
0
0
0
0
0
0
0
0
0
0
1
1
0
0
0
0
0
0
0
0
0
0
0
0
0
0
0
0
0
0
0
0
0
0
0
0
0
0
0
0
0
0
0
0
0
1
1
0
0
0
0
0
0
0
0
0
0
0
0
0
0
0
0
0
0
0
0
1
1
0
0
0
0
0
0
0
0
0
0
0
0
0
0
0
0
0
0
0
0
0
0
0
0
0
0
0
0
0
0
0
0
0
1
1
0
0
0
0
0
0
0
0
0
0
0
0
0
0
0
0
0
0
0
0
1
1
0
0
0
0
0
0
0
0
0
0
0
0
0
0
0
0
0
0
0
0
0
0
0
0
0
0
0
0
0
0
0
0
0
1
1
0
0
0
0
0
0
0
0
0
0
0
0
0
0
0
0
0
0
0
0
1
1
0
0
0
0
0
0
0
0
0
0
0
0
0
0
0
0
0
0
0
0
0
0
0
0
0
0
0
0
0
0
0
0
0
1
1
1
1
1
1
1
1
1
1
1
1
1
1
1
1
1
1
1
1
1
1
1
1
1
1
1
1
1
1
1
1
1
1
1
1
1
1
1
1
1
1
1
1
1
1
1
1
1
1
1
1
1
1
1
1
1
1
				</DataArray>
				<DataArray type="Float64" Name="h" NumberOfComponents="1" Format="ascii">
1.3907965246
1.3853805831
1.3858383482
1.3867296615
1.3880148258
1.3896364878
1.3915220913
1.3935877166
1.3957423690
1.3978933676
1.3999527649
1.4018436054
1.4035058183
1.4049008689
1.4060141424
1.4068545035
1.4074505885
1.4078447752
1.4080852709
1.4082172732
1.4082756487
1.4082756487
1.0859809240
1.0899244573
1.0896256818
1.0890196226
1.0880959520
1.0868395702
1.0852314282
1.0832498530
1.0808714573
1.0780731974
1.0748349769
1.0711423649
1.0669909130
1.0623908727
1.0573721366
1.0519899145
1.0463285211
1.0405026808
1.0346552650
1.0289484430
1.0235496663
1.0186139456
1.0142645127
1.0105781653
1.0075784479
1.0052376026
1.0034873667
1.0022344033
1.0013761037
1.0008140723
1.0004631345
1.0002557895
1.0001432672
1.0000945009
1.0000945009
1.3853805831
1.3801339291
1.3806242097
1.3815816738
1.3829678556
1.3847268028
1.3867870883
1.3890651119
1.3914688377
1.3939025886
1.3962730337
1.3984952742
1.4004988816
1.4022331991
1.4036707582
1.4048080807
1.4056632366
1.4062706729
1.4066735433
1.4069144931
1.4070274711
1.4082756487
1.0899244573
1.0936771800
1.0933968389
1.0928271175
1.0919572335
1.0907713334
1.0892491976
1.0873674253
1.0851001183
1.0824206667
1.0793040677
1.0757293043
1.0716833712
1.0671658726
1.0621940679
1.0568091277
1.0510811438
1.0451123146
1.0390372106
1.0330166003
1.0272255039
1.0218361296
1.0169969829
1.0128145870
1.0093418461
1.0065752508
1.0044625191
1.0029170586
1.0018347645
1.0011098748
1.0006467666
1.0003669250
1.0002119463
1.0001437749
1.0000945009
1.3855247839
1.3803745184
1.3808590491
1.3818057443
1.3831772804
1.3849193422
1.3869625516
1.3892256348
1.3916189852
1.3940492197
1.3964248879
1.3986622710
1.4006911575
1.4024599821
1.4039392242
1.4051223660
1.4060237897
1.4066740444
1.4071126293
1.4073791689
1.4075054792
1.4087780305
1.0887649067
1.0923641483
1.0920975977
1.0915559106
1.0907292238
1.0896030623
1.0881590264
1.0863759252
1.0842303452
1.0816981943
1.0787566604
1.0753860456
1.0715730338
1.0673144037
1.0626211146
1.0575237329
1.0520771612
1.0463644242
1.0404988156
1.0346210161
1.0288912857
1.0234763329
1.0185306484
1.0141775818
1.0104941615
1.0075029683
1.0051746243
1.0034388670
1.0022002788
1.0013551067
1.0008051149
1.0004668280
1.0002765128
1.0001918432
1.0001288640
1.3857660657
1.3808056874
1.3812791314
1.3822050877
1.3835484872
1.3852582374
1.3872689748
1.3895039595
1.3918782888
1.3943029904
1.3966901959
1.3989583973
1.4010377299
1.4028748135
1.4044361234
1.4057092463
1.4067014187
1.4074356240
1.4079442400
1.4082609740
1.4084134438
1.4097332557
1.0867607184
1.0900623932
1.0898224901
1.0893347858
1.0885908320
1.0875782817
1.0862815494
1.0846828691
1.0827626779
1.0805007745
1.0778777064
1.0748757411
1.0714809235
1.0676853778
1.0634898124
1.0589074954
1.0539682930
1.0487230281
1.0432481866
1.0376480211
1.0320535665
1.0266167760
1.0214971016
1.0168433345
1.0127737694
1.0093591072
1.0066149590
1.0045052967
1.0029547491
1.0018662677
1.0011385101
1.0006794869
1.0004156159
1.0002964304
1.0002043582
1.3860921348
1.3814095715
1.3818664342
1.3827613631
1.3840626951
1.3857241800
1.3876864398
1.3898794314
1.3922251276
1.3946409309
1.3970440846
1.3993561766
1.4015077565
1.4034427841
1.4051219809
1.4065245023
1.4076473593
1.4085026587
1.4091124647
1.4095018368
1.4096922023
1.4110814678
1.0842393360
1.0871258498
1.0869234821
1.0865115024
1.0858828487
1.0850272775
1.0839320068
1.0825827110
1.0809637192
1.0790587668
1.0768517898
1.0743269895
1.0714696029
1.0682666957
1.0647079019
1.0607876227
1.0565079027
1.0518826954
1.0469444156
1.0417506558
1.0363904930
1.0309877666
1.0256962264
1.0206859528
1.0161214683
1.0121353947
1.0088076009
1.0061560505
1.0041412537
1.0026825678
1.0016792505
1.0010301682
1.0006491155
1.0004745132
1.0003346806
1.3864868267
1.3821614480
1.3825960367
1.3834492422
1.3846939965
1.3862905392
1.3881874357
1.3903234258
1.3926293803
1.3950308349
1.3974514558
1.3998166417
1.4020573684
1.4041142030
1.4059406568
1.4075053580
1.4087925166
1.4098005264
1.4105383092
1.4110197688
1.4112582537
1.4127376794
1.0815453658
1.0839393950
1.0837825748
1.0834620505
1.0829716116
1.0823023587
1.0814433735
1.0803827105
1.0791074818
1.0776042939
1.0758595896
1.0738589831
1.0715869628
1.0690264218
1.0661578121
1.0629595604
1.0594094225
1.0554877316
1.0511842260
1.0465074003
1.0414963517
1.0362328082
1.0308469456
1.0255131344
1.0204319392
1.0157988019
1.0117699624
1.0084365586
1.0058150987
1.0038573759
1.0024729953
1.0015556154
1.0010065400
1.0007516817
1.0005407158
1.3869303443
1.3830298168
1.3834362974
1.3842367707
1.3854099640
1.3869242425
1.3887380118
1.3908007510
1.3930540512
1.3954330959
1.3978690479
1.4002916700
1.4026323589
1.4048277292
1.4068229934
1.4085746748
1.4100521869
1.4112379131
1.4121252236
1.4127146240
1.4130096308
1.4145971978
1.0789627774
1.0808342915
1.0807278247
1.0805078852
1.0801682066
1.0796999539
1.0790925047
1.0783345452
1.0774141701
1.0763191686
1.0750371401
1.0735543847
1.0718548995
1.0699190617
1.0677215852
1.0652303985
1.0624063641
1.0592047687
1.0555808064
1.0514990087
1.0469475128
1.0419562049
1.0366127615
1.0310709433
1.0255434229
1.0202736982
1.0154940758
1.0113824392
1.0080328241
1.0054513969
1.0035750379
1.0023023151
1.0015264747
1.0011620213
1.0008507044
1.3874008599
1.3839780215
1.3843505717
1.3850872676
1.3861737875
1.3875881744
1.3893004321
1.3912725361
1.3934583712
1.3958040199
1.3982489942
1.4007278557
1.4031724603
1.4055151465
1.4076921582
1.4096468870
1.4113325530
1.4127137873
1.4137664416
1.4144756792
1.4148335992
1.4165430951
1.0766728119
1.0780367226
1.0779826374
1.0778667470
1.0776815963
1.0774168483
1.0770603042
1.0765992518
1.0760207360
1.0753118845
1.0744600303
1.0734514416
1.0722699753
1.0708953334
1.0693002628
1.0674482782
1.0652918948
1.0627720448
1.0598211211
1.0563703239
1.0523630745
1.0477753706
1.0426389787
1.0370621869
1.0312382346
1.0254297808
1.0199289823
1.0150022673
1.0108386186
1.0075235112
1.0050448947
1.0033236925
1.0022552952
1.0017475384
1.0013000938
1.3878745121
1.3849645753
1.3852976209
1.3859598921
1.3869450466
1.3882421731
1.3898343919
1.3916976540
1.3937994213
1.3960976692
1.3985409337
1.4010689632
1.4036142292
1.4061047597
1.4084676001
1.4106325237
1.4125357306
1.4141228901
1.4153508096
1.4161876870
1.4166128210
1.4184524836
1.0747510238
1.0756568196
1.0756554473
1.0756436030
1.0756113628
1.0755451716
1.0754292775
1.0752475140
1.0749839053
1.0746232029
1.0741512059
1.0735535415
1.0728142535
1.0719139624
1.0708266901
1.0695168407
1.0679362751
1.0660217613
1.0636951893
1.0608675726
1.0574491269
1.0533679929
1.0485960369
1.0431786349
1.0372592088
1.0310829564
1.0249707300
1.0192630906
1.0142505184
1.0101202536
1.0069394596
1.0046761827
1.0032450911
1.0025569518
1.0019308946
1.3883274492
1.3859458500
1.3862343418
1.3868124468
1.3876826075
1.3888460204
1.3903000909
1.3920358706
1.3940353672
1.3962692114
1.3986955307
1.4012596858
1.4038951114
1.4065258190
1.4090698599
1.4114434009
1.4135653090
1.4153615702
1.4167688492
1.4177370940
1.4182316516
1.4202033356
1.0731866344
1.0737040084
1.0737554311
1.0738470282
1.0739649433
1.0740905267
1.0742024229
1.0742789977
1.0742994397
1.0742446377
1.0740978175
1.0738434823
1.0734660919
1.0729483284
1.0722678156
1.0713937198
1.0702830689
1.0688766262
1.0670964760
1.0648463501
1.0620170782
1.0585008765
1.0542152916
1.0491367117
1.0433372920
1.0370095223
1.0304629904
1.0240818185
1.0182483565
1.0132646861
1.0093047346
1.0064138798
1.0045504055
1.0036434727
1.0027902054
1.3887388666
1.3868802782
1.3871199630
1.3876055677
1.3883487995
1.3893636052
1.3906623912
1.3922520188
1.3941296881
1.3962792605
1.3986689899
1.4012503934
1.4039584642
1.4067138374
1.4094261810
1.4119985058
1.4143324814
1.4163341278
1.4179192774
1.4190186895
1.4195828594
1.4216820199
1.0719100387
1.0721146812
1.0722202875
1.0724171105
1.0726855510
1.0729996721
1.0733302684
1.0736481908
1.0739260899
1.0741397144
1.0742688963
1.0742966544
1.0742079935
1.0739883462
1.0736203325
1.0730802533
1.0723340369
1.0713320488
1.0700046036
1.0682589750
1.0659800175
1.0630386097
1.0593104639
1.0547080484
1.0492237270
1.0429715578
1.0362102944
1.0293263256
1.0227669689
1.0169468931
1.0121671741
1.0085820685
1.0062237525
1.0050614176
1.0039277188
1.3890924215
1.3877313218
1.3879189610
1.3883055409
1.3889121108
1.3897654973
1.3908932962
1.3923184349
1.3940536370
1.3960964283
1.3984257556
1.4010000113
1.4037566233
1.4066138301
1.4094738959
1.4122275115
1.4147596775
1.4169565662
1.4187128776
1.4199395836
1.4205716703
1.4227882858
1.0708191280
1.0707817022
1.0709457498
1.0712548453
1.0716811726
1.0721887006
1.0727376975
1.0732892535
1.0738077927
1.0742628028
1.0746301119
1.0748910459
1.0750312620
1.0750393180
1.0749035027
1.0746083894
1.0741307237
1.0734336823
1.0724610043
1.0711314264
1.0693350297
1.0669356581
1.0637828793
1.0597383049
1.0547185218
1.0487472722
1.0420018893
1.0348279842
1.0276979374
1.0211190682
1.0155265782
1.0112106457
1.0083103601
1.0068618602
1.0053922970
1.3893780589
1.3884709915
1.3886044965
1.3888875934
1.3893503032
1.3900319022
1.3909748001
1.3922177803
1.3937891180
1.3957003242
1.3979416666
1.4004793288
1.4032543277
1.4061838039
1.4091639353
1.4120742789
1.4147840675
1.4171601322
1.4190761197
1.4204229279
1.4211195642
1.4234398670
1.0697970009
1.0695765041
1.0698077943
1.0702443329
1.0708464203
1.0715640593
1.0723435669
1.0731336422
1.0738887221
1.0745710581
1.0751521187
1.0756115759
1.0759359761
1.0761172856
1.0761497220
1.0760264391
1.0757355789
1.0752544242
1.0745428372
1.0735359914
1.0721373978
1.0702159516
1.0676107151
1.0641493865
1.0596859390
1.0541556124
1.0476377150
1.0404012692
1.0328990380
1.0256959952
1.0193514632
1.0143079283
1.0108422374
1.0090872279
1.0072274575
1.3895928714
1.3890823943
1.3891608825
1.3893382215
1.3896525910
1.3901547331
1.3909009404
1.3919451827
1.3933310166
1.3950841415
1.3972068214
1.3996741141
1.4024320228
1.4053981761
1.4084642995
1.4115003571
1.4143611078
1.4168949615
1.4189549695
1.4204119212
1.4211684332
1.4235770845
1.0687206869
1.0683618874
1.0686759026
1.0692665022
1.0700763731
1.0710359762
1.0720731355
1.0731209912
1.0741221528
1.0750308898
1.0758143450
1.0764509952
1.0769288516
1.0772437385
1.0773959786
1.0773871982
1.0772166805
1.0768757652
1.0763411997
1.0755670150
1.0744753118
1.0729490288
1.0708301659
1.0679297475
1.0640570489
1.0590710187
1.0529508738
1.0458663901
1.0382103126
1.0305620449
1.0235787182
1.0178563519
1.0138325453
1.0117654956
1.0094662027
1.3897399896
1.3895598590
1.3895836279
1.3896550918
1.3898193885
1.3901372495
1.3906774126
1.3915079298
1.3926870606
1.3942547375
1.3962258791
1.3985855938
1.4012864466
1.4042483873
1.4073606424
1.4104855246
1.4134650852
1.4161307273
1.4183157672
1.4198710067
1.4206820521
1.4231643315
1.0674625331
1.0669963931
1.0674186698
1.0682061595
1.0692746653
1.0705269211
1.0718662006
1.0732063244
1.0744762960
1.0756221189
1.0766072962
1.0774102484
1.0780216230
1.0784419858
1.0786781590
1.0787400808
1.0786375280
1.0783750271
1.0779456169
1.0773226141
1.0764492021
1.0752281593
1.0735146550
1.0711181849
1.0678221096
1.0634271985
1.0578222191
1.0510698397
1.0434734688
1.0355840021
1.0281185740
1.0218115753
1.0172716220
1.0149051034
1.0121260705
1.3898270901
1.3899079351
1.3898783893
1.3898459172
1.3898611180
1.3899928460
1.3903204205
1.3909244681
1.3918770390
1.3932321082
1.3950177798
1.3972303675
1.3998306567
1.4027429530
1.4058562769
1.4090277268
1.4120890445
1.4148567063
1.4171456518
1.4187868489
1.4196475879
1.4221910768
1.0658842108
1.0653299433
1.0659020664
1.0669531617
1.0683568381
1.0699760903
1.0716817563
1.0733641744
1.0749374368
1.0763399258
1.0775332676
1.0784979969
1.0792294477
1.0797344850
1.0800272818
1.0801261459
1.0800506401
1.0798172033
1.0794337157
1.0788917749
1.0781560147
1.0771519959
1.0757549008
1.0737845651
1.0710154308
1.0672099915
1.0621835801
1.0558967656
1.0485483572
1.0406253977
1.0328628979
1.0261045183
1.0211247892
1.0184908546
1.0152046469
1.3898641921
1.3901389222
1.3900584842
1.3899259435
1.3897956835
1.3897425543
1.3898542658
1.3902221482
1.3909307646
1.3920476068
1.3936142266
1.3956391240
1.3980929178
1.4009064372
1.4039711516
1.4071420146
1.4102437416
1.4130809564
1.4154523433
1.4171691471
1.4180775393
1.4206728682
1.0638233223
1.0631908853
1.0639818486
1.0654001302
1.0672516934
1.0693425544
1.0715014939
1.0735915350
1.0755119280
1.0771958280
1.0786064517
1.0797300732
1.0805699069
1.0811415182
1.0814678717
1.0815760727
1.0814949075
1.0812513353
1.0808661580
1.0803472985
1.0796796340
1.0788121277
1.0776437374
1.0760129491
1.0736990912
1.0704451169
1.0660130663
1.0602754306
1.0533245684
1.0455601821
1.0376958468
1.0306466507
1.0253329534
1.0224820187
1.0186766586
1.3898615748
1.3902697560
1.3901417417
1.3899147329
1.3896451634
1.3894116288
1.3893078268
1.3894336110
1.3898843904
1.3907402164
1.3920559296
1.3938528449
1.3961128165
1.3987753875
1.4017374898
1.4048557984
1.4079525616
1.4108252313
1.4132597901
1.4150480482
1.4160095238
1.4186500390
1.0610702164
1.0603624010
1.0614913432
1.0634399546
1.0659046792
1.0686110816
1.0713357296
1.0739126698
1.0762295091
1.0782196621
1.0798539656
1.0811299738
1.0820633082
1.0826815197
1.0830183896
1.0831106290
1.0829959027
1.0827103413
1.0822855467
1.0817432461
1.0810862713
1.0802858504
1.0792659290
1.0778886502
1.0759483951
1.0731844375
1.0693255068
1.0641748388
1.0577269056
1.0502833202
1.0425049024
1.0353378050
1.0298163368
1.0268134802
1.0224935892
1.3898285319
1.3903192565
1.3901477286
1.3898333430
1.3894329053
1.3890265198
1.3887113753
1.3885934309
1.3887768857
1.3893528817
1.3903888173
1.3919188958
1.3939371722
1.3963939193
1.3991948138
1.4022030584
1.4052448190
1.4081177666
1.4106017414
1.4124708378
1.4135082825
1.4161886599
1.0573280381
1.0565417252
1.0582249989
1.0609663292
1.0642866122
1.0678026939
1.0712322602
1.0743849712
1.0771462757
1.0794604186
1.0813154504
1.0827279960
1.0837319191
1.0843707450
1.0846914751
1.0847414574
1.0845670344
1.0842122377
1.0837173007
1.0831149489
1.0824230091
1.0816326019
1.0806919104
1.0794889565
1.0778398584
1.0754925078
1.0721600693
1.0675966037
1.0617138292
1.0547155596
1.0471889578
1.0400738451
1.0344797068
1.0313989626
1.0265852478
1.3897724936
1.3903056585
1.3900952538
1.3897017729
1.3891808680
1.3886120494
1.3880935294
1.3877348092
1.3876464689
1.3879287176
1.3886600739
1.3898869186
1.3916157222
1.3938089713
1.3963843383
1.3992172738
1.4021467139
1.4049824951
1.4075113191
1.4094969438
1.4106730521
1.4133871684
1.0521403965
1.0512668436
1.0539187691
1.0578836320
1.0624136587
1.0669934992
1.0712893819
1.0751056643
1.0783464929
1.0809850438
1.0830404836
1.0845584331
1.0855976797
1.0862218943
1.0864936272
1.0864717794
1.0862111063
1.0857622732
1.0851719885
1.0844810796
1.0837190646
1.0828938065
1.0819755758
1.0808783107
1.0794435370
1.0774364780
1.0745692077
1.0705654648
1.0652723063
1.0588040405
1.0516636328
1.0447538702
1.0392190332
1.0361365974
1.0308637446
1.3896994095
1.3902455830
1.3900012934
1.3895377895
1.3889082729
1.3881897950
1.3874792727
1.3868871514
1.3865277058
1.3865076380
1.3869143349
1.3878046051
1.3891963629
1.3910646412
1.3933416062
1.3959210670
1.3986664614
1.4014190250
1.4039987567
1.4061842458
1.4076534874
1.4103921110
1.0447502175
1.0437742854
1.0482308637
1.0541395815
1.0603897279
1.0663477941
1.0716753027
1.0762199150
1.0799434757
1.0828755974
1.0850844108
1.0866554973
1.0876789635
1.0882420395
1.0884243772
1.0882967476
1.0879216880
1.0873550828
1.0866479595
1.0858463835
1.0849881720
1.0840943875
1.0831543421
1.0821063376
1.0808185485
1.0790790160
1.0766096323
1.0731199783
1.0684106905
1.0625195733
1.0558635137
1.0492859621
1.0439285580
1.0409160347
1.0352293782
1.3896144628
1.3901537439
1.3898806838
1.3893565892
1.3886311914
1.3877775366
1.3868891830
1.3860750142
1.3854501465
1.3851247038
1.3851918088
1.3857156335
1.3867227840
1.3881989859
1.3900911172
1.3923160700
1.3947754650
1.3973713033
1.4000094663
1.4025579125
1.4046914068
1.4074402759
1.0338070809
1.0327048562
1.0407370863
1.0498081553
1.0584850178
1.0661654881
1.0726474849
1.0779226243
1.0820728183
1.0852195702
1.0874987349
1.0890451207
1.0899842416
1.0904281848
1.0904736055
1.0902023156
1.0896833103
1.0889759628
1.0881334234
1.0872042402
1.0862312442
1.0852450741
1.0842505753
1.0832078056
1.0820109968
1.0804737911
1.0783354133
1.0753041193
1.0711506542
1.0658511875
1.0597408979
1.0535900425
1.0485063083
1.0456250146
1.0395766240
1.3895221792
1.3900425145
1.3897456983
1.3891703929
1.3883621456
1.3873888258
1.3863389242
1.3853174826
1.3844375945
1.3838093631
1.3835276454
1.3836593608
1.3842345521
1.3852440294
1.3866444394
1.3883745970
1.3903847025
1.3926759242
1.3953371367
1.3985248620
1.4022178037
1.4049566386
1.0168226614
1.0155545926
1.0310555012
1.0453127493
1.0572802735
1.0669415897
1.0745615776
1.0804450877
1.0848726950
1.0880910306
1.0903156415
1.0917332605
1.0925037728
1.0927617500
1.0926182689
1.0921637654
1.0914714513
1.0906020405
1.0896085541
1.0885394451
1.0874395339
1.0863455898
1.0852743808
1.0842045232
1.0830544301
1.0816639928
1.0797942973
1.0771616824
1.0735207961
1.0688008158
1.0632634352
1.0575993083
1.0528586981
1.0501556267
1.0438003310
1.3894273411
1.3899226899
1.3896068340
1.3889892790
1.3881109885
1.3870338927
1.3858401429
1.3846290271
1.3835089381
1.3825863696
1.3819532129
1.3816729074
1.3817705189
1.3822305752
1.3830046546
1.3840368506
1.3853167804
1.3869734581
1.3894300260
1.3936139890
1.4010455029
1.4037483465
0.9905256971
0.9890233823
1.0200450395
1.0421782302
1.0579774231
1.0694462285
1.0778608753
1.0840196341
1.0884487404
1.0915229362
1.0935282081
1.0946924904
1.0952008425
1.0952030599
1.0948191496
1.0941440685
1.0932521034
1.0922027935
1.0910467863
1.0898301265
1.0885969970
1.0873872305
1.0862260958
1.0851073663
1.0839709546
1.0826820529
1.0810256545
1.0787324025
1.0755515092
1.0713782503
1.0664109207
1.0612601423
1.0569035797
1.0544092743
1.0478011280
1.3893352389
1.3898038722
1.3894732534
1.3888217391
1.3878856142
1.3867205340
1.3854015435
1.3840207850
1.3826797177
1.3814778710
1.3804992476
1.3797964199
1.3793779292
1.3792033341
1.3791883478
1.3792330665
1.3792974479
1.3795822887
1.3809819241
1.3862365093
1.4027511529
1.4053885436
0.9639684676
0.9621681910
1.0164136741
1.0453787894
1.0630391801
1.0748049418
1.0830131287
1.0888027171
1.0928149787
1.0954677379
1.0970657617
1.0978471081
1.0980029725
1.0976862854
1.0970180894
1.0960925749
1.0949814552
1.0937404819
1.0924158722
1.0910493475
1.0896823478
1.0883552399
1.0870987809
1.0859185978
1.0847730069
1.0835504338
1.0820598544
1.0800496598
1.0772711892
1.0735966817
1.0691715645
1.0645304707
1.0605711643
1.0582993486
1.0514889138
1.3892506924
1.3896937719
1.3893521405
1.3886741383
1.3876915635
1.3864538867
1.3850288427
1.3835007132
1.3819625629
1.3805044197
1.3791982088
1.3780785091
1.3771242545
1.3762437892
1.3752594226
1.3738913075
1.3717283074
1.3681400721
1.3620058710
1.3508261893
1.3276059237
1.2536501730
1.1412682833
1.1368477009
1.0837897537
1.0530149650
1.0570782339
1.0667418898
1.0761720556
1.0840482521
1.0901743928
1.0946813529
1.0977927053
1.0997472885
1.1007701516
1.1010626264
1.1007979232
1.1001186090
1.0991386575
1.0979463859
1.0966076108
1.0951720858
1.0936800219
1.0921674742
1.0906716771
1.0892316571
1.0878812112
1.0866348359
1.0854660457
1.0842837072
1.0829193550
1.0811402638
1.0787046464
1.0754701504
1.0715394315
1.0673783413
1.0638043760
1.0617529402
1.0547854559
1.3891783819
1.3895988675
1.3892494080
1.3885515118
1.3875329348
1.3862374600
1.3847258960
1.3830747641
1.3813684159
1.3796865352
1.3780875475
1.3765860372
1.3751289288
1.3735715824
1.3716460248
1.3689162710
1.3646999037
1.3578993212
1.3466413579
1.3275053040
1.2939625562
1.2296644940
1.1385156801
1.1341897431
1.1086557025
1.0876474590
1.0823361324
1.0843560009
1.0888355333
1.0935755907
1.0976575774
1.1007590837
1.1028423024
1.1040017438
1.1043836115
1.1041459361
1.1034371692
1.1023840714
1.1010895057
1.0996330522
1.0980727080
1.0964509986
1.0948013472
1.0931535399
1.0915398741
1.0899968835
1.0885596074
1.0872488859
1.0860503335
1.0848900515
1.0836196156
1.0820244805
1.0798720721
1.0770115852
1.0735121170
1.0697800777
1.0665580908
1.0647110126
1.0576254915
1.3891225609
1.3895244269
1.3891697618
1.3884576978
1.3874125971
1.3860733986
1.3844949000
1.3827467362
1.3809053566
1.3790409605
1.3771997388
1.3753788251
1.3734988393
1.3713752417
1.3686800645
1.3648916376
1.3592202230
1.3504786447
1.3368825270
1.3158006114
1.2836718399
1.2358534642
1.1796223805
1.1543868426
1.1307600028
1.1121274567
1.1026349513
1.0997386334
1.1003693057
1.1024003468
1.1046059900
1.1063739759
1.1074673319
1.1078593512
1.1076256487
1.1068834959
1.1057568706
1.1043562177
1.1027725741
1.1010761815
1.0993168858
1.0975299275
1.0957420850
1.0939770796
1.0922622967
1.0906313486
1.0891193868
1.0877515864
1.0865228019
1.0853729711
1.0841704312
1.0827167027
1.0807888116
1.0782316298
1.0750888951
1.0717182976
1.0687975490
1.0671272811
1.0599564403
1.3890857132
1.3894734128
1.3891156205
1.3883942630
1.3873311035
1.3859613366
1.3843350692
1.3825165156
1.3805758811
1.3785759286
1.3765535199
1.3744931079
1.3722974944
1.3697578455
1.3665153673
1.3620169512
1.3554632603
1.3457398470
1.3313634401
1.3105346639
1.2815206743
1.2435786125
1.2021384180
1.1725893894
1.1483614099
1.1296930775
1.1178789300
1.1118708028
1.1097208049
1.1096272580
1.1102984790
1.1109577827
1.1112249515
1.1109769871
1.1102312797
1.1090710771
1.1075998331
1.1059141598
1.1040949141
1.1022042256
1.1002848921
1.0983659313
1.0964685221
1.0946113013
1.0928174717
1.0911179621
1.0895475235
1.0881341618
1.0868793997
1.0857335653
1.0845779687
1.0832270429
1.0814662957
1.0791387801
1.0762701227
1.0731808842
1.0704972704
1.0689672554
1.0617380645
1.3890693371
1.3894474459
1.3890881062
1.3883615296
1.3872877604
1.3858995093
1.3842437692
1.3823811710
1.3803778350
1.3782917618
1.3761540565
1.3739417296
1.3715478352
1.3687517387
1.3651828765
1.3602840007
1.3532793691
1.3431492665
1.3286594545
1.3085380428
1.2819409012
1.2493341743
1.2145720903
1.1849568120
1.1603584127
1.1412129771
1.1280098143
1.1201242435
1.1161705451
1.1146201272
1.1142094492
1.1140835604
1.1137708034
1.1130792053
1.1119823460
1.1105376440
1.1088331616
1.1069553700
1.1049778106
1.1029568861
1.1009304951
1.0989233914
1.0969529534
1.0950343687
1.0931879754
1.0914428065
1.0898332120
1.0883889554
1.0871159306
1.0859714331
1.0848456375
1.0835620114
1.0819123348
1.0797391294
1.0770563874
1.0741596528
1.0716394763
1.0702066075
1.0629413502
1.3890739676
1.3894469261
1.3890871841
1.3883587327
1.3872808148
1.3858849945
1.3842168534
1.3823354529
1.3803052088
1.3781822552
1.3759956076
1.3737197594
1.3712447185
1.3683466998
1.3646532862
1.3596107635
1.3524620406
1.3422403660
1.3278318041
1.3081926638
1.2828169411
1.2524970828
1.2203386172
1.1911198044
1.1663844355
1.1468934128
1.1329757160
1.1241500153
1.1192707615
1.1169582462
1.1159831056
1.1154591799
1.1148666096
1.1139728407
1.1127239972
1.1111607675
1.1093613650
1.1074062029
1.1053649175
1.1032912290
1.1012209799
1.0991772600