<VTKFile type="UnstructuredGrid" version="0.1">
	<UnstructuredGrid>
		<Piece NumberOfPoints="13548" NumberOfCells="3387">
			<CellData>
				<DataArray type="Int32" Name="ghost" NumberOfComponents="1" Format="ascii">
1
1
1
1
1
1
1
1
1
1
1
1
1
1
1
1
1
1
1
1
1
1
1
1
1
1
1
1
1
1
1
1
1
1
1
1
1
1
1
1
1
1
1
1
1
1
1
1
1
1
1
1
1
1
1
1
1
1
0
0
0
0
0
0
0
0
0
0
0
0
0
0
0
0
0
0
0
0
1
1
0
0
0
0
0
0
0
0
0
0
0
0
0
0
0
0
0
0
0
0
0
0
0
0
0
0
0
0
0
0
0
0
0
1
1
0
0
0
0
0
0
0
0
0
0
0
0
0
0
0
0
0
0
0
0
1
1
0
0
0
0
0
0
0
0
0
0
0
0
0
0
0
0
0
0
0
0
0
0
0
0
0
0
0
0
0
0
0
0
0
1
1
0
0
0
0
0
0
0
0
0
0
0
0
0
0
0
0
0
0
0
0
1
1
0
0
0
0
0
0
0
0
0
0
0
0
0
0
0
0
0
0
0
0
0
0
0
0
0
0
0
0
0
0
0
0
0
1
1
0
0
0
0
0
0
0
0
0
0
0
0
0
0
0
0
0
0
0
0
1
1
0
0
0
0
0
0
0
0
0
0
0
0
0
0
0
0
0
0
0
0
0
0
0
0
0
0
0
0
0
0
0
0
0
1
1
0
0
0
0
0
0
0
0
0
0
0
0
0
0
0
0
0
0
0
0
1
1
0
0
0
0
0
0
0
0
0
0
0
0
0
0
0
0
0
0
0
0
0
0
0
0
0
0
0
0
0
0
0
0
0
1
1
0
0
0
0
0
0
0
0
0
0
0
0
0
0
0
0
0
0
0
0
1
1
0
0
0
0
0
0
0
0
0
0
0
0
0
0
0
0
0
0
0
0
0
0
0
0
0
0
0
0
0
0
0
0
0
1
1
0
0
0
0
0
0
0
0
0
0
0
0
0
0
0
0
0
0
0
0
1
1
0
0
0
0
0
0
0
0
0
0
0
0
0
0
0
0
0
0
0
0
0
0
0
0
0
0
0
0
0
0
0
0
0
1
1
0
0
0
0
0
0
0
0
0
0
0
0
0
0
0
0
0
0
0
0
1
1
0
0
0
0
0
0
0
0
0
0
0
0
0
0
0
0
0
0
0
0
0
0
0
0
0
0
0
0
0
0
0
0
0
1
1
0
0
0
0
0
0
0
0
0
0
0
0
0
0
0
0
0
0
0
0
1
1
0
0
0
0
0
0
0
0
0
0
0
0
0
0
0
0
0
0
0
0
0
0
0
0
0
0
0
0
0
0
0
0
0
1
1
0
0
0
0
0
0
0
0
0
0
0
0
0
0
0
0
0
0
0
0
1
1
0
0
0
0
0
0
0
0
0
0
0
0
0
0
0
0
0
0
0
0
0
0
0
0
0
0
0
0
0
0
0
0
0
1
1
0
0
0
0
0
0
0
0
0
0
0
0
0
0
0
0
0
0
0
0
1
1
0
0
0
0
0
0
0
0
0
0
0
0
0
0
0
0
0
0
0
0
0
0
0
0
0
0
0
0
0
0
0
0
0
1
1
0
0
0
0
0
0
0
0
0
0
0
0
0
0
0
0
0
0
0
0
1
1
0
0
0
0
0
0
0
0
0
0
0
0
0
0
0
0
0
0
0
0
0
0
0
0
0
0
0
0
0
0
0
0
0
1
1
0
0
0
0
0
0
0
0
0
0
0
0
0
0
0
0
0
0
0
0
1
1
0
0
0
0
0
0
0
0
0
0
0
0
0
0
0
0
0
0
0
0
0
0
0
0
0
0
0
0
0
0
0
0
0
1
1
0
0
0
0
0
0
0
0
0
0
0
0
0
0
0
0
0
0
0
0
1
1
0
0
0
0
0
0
0
0
0
0
0
0
0
0
0
0
0
0
0
0
0
0
0
0
0
0
0
0
0
0
0
0
0
1
1
0
0
0
0
0
0
0
0
0
0
0
0
0
0
0
0
0
0
0
0
1
1
0
0
0
0
0
0
0
0
0
0
0
0
0
0
0
0
0
0
0
0
0
0
0
0
0
0
0
0
0
0
0
0
0
1
1
0
0
0
0
0
0
0
0
0
0
0
0
0
0
0
0
0
0
0
0
1
1
0
0
0
0
0
0
0
0
0
0
0
0
0
0
0
0
0
0
0
0
0
0
0
0
0
0
0
0
0
0
0
0
0
1
1
0
0
0
0
0
0
0
0
0
0
0
0
0
0
0
0
0
0
0
0
1
1
0
0
0
0
0
0
0
0
0
0
0
0
0
0
0
0
0
0
0
0
0
0
0
0
0
0
0
0
0
0
0
0
0
1
1
0
0
0
0
0
0
0
0
0
0
0
0
0
0
0
0
0
0
0
0
1
1
0
0
0
0
0
0
0
0
0
0
0
0
0
0
0
0
0
0
0
0
0
0
0
0
0
0
0
0
0
0
0
0
0
1
1
0
0
0
0
0
0
0
0
0
0
0
0
0
0
0
0
0
0
0
0
1
1
0
0
0
0
0
0
0
0
0
0
0
0
0
0
0
0
0
0
0
0
0
0
0
0
0
0
0
0
0
0
0
0
0
1
1
0
0
0
0
0
0
0
0
0
0
0
0
0
0
0
0
0
0
0
0
1
1
0
0
0
0
0
0
0
0
0
0
0
0
0
0
0
0
0
0
0
0
0
0
0
0
0
0
0
0
0
0
0
0
0
1
1
0
0
0
0
0
0
0
0
0
0
0
0
0
0
0
0
0
0
0
0
1
1
0
0
0
0
0
0
0
0
0
0
0
0
0
0
0
0
0
0
0
0
0
0
0
0
0
0
0
0
0
0
0
0
0
1
1
0
0
0
0
0
0
0
0
0
0
0
0
0
0
0
0
0
0
0
0
1
1
0
0
0
0
0
0
0
0
0
0
0
0
0
0
0
0
0
0
0
0
0
0
0
0
0
0
0
0
0
0
0
0
0
1
1
0
0
0
0
0
0
0
0
0
0
0
0
0
0
0
0
0
0
0
0
1
1
0
0
0
0
0
0
0
0
0
0
0
0
0
0
0
0
0
0
0
0
0
0
0
0
0
0
0
0
0
0
0
0
0
1
1
0
0
0
0
0
0
0
0
0
0
0
0
0
0
0
0
0
0
0
0
1
1
0
0
0
0
0
0
0
0
0
0
0
0
0
0
0
0
0
0
0
0
0
0
0
0
0
0
0
0
0
0
0
0
0
1
1
0
0
0
0
0
0
0
0
0
0
0
0
0
0
0
0
0
0
0
0
0
1
1
0
0
0
0
0
0
0
0
0
0
0
0
0
0
0
0
0
0
0
0
0
0
0
0
0
0
0
0
0
0
0
0
0
0
1
1
0
0
0
0
0
0
0
0
0
0
0
0
0
0
0
0
0
0
0
0
0
0
0
0
0
0
0
0
0
0
0
0
0
0
0
0
0
0
0
0
0
0
0
0
0
0
0
0
0
0
0
0
0
0
0
0
0
1
1
0
0
0
0
0
0
0
0
0
0
0
0
0
0
0
0
0
0
0
0
0
0
0
0
0
0
0
0
0
0
0
0
0
0
0
0
0
0
0
0
0
0
0
0
0
0
0
0
0
0
0
0
0
0
0
0
0
1
1
0
0
0
0
0
0
0
0
0
0
0
0
0
0
0
0
0
0
0
0
0
0
0
0
0
0
0
0
0
0
0
0
0
0
0
0
0
0
0
0
0
0
0
0
0
0
0
0
0
0
0
0
0
0
0
0
0
1
1
0
0
0
0
0
0
0
0
0
0
0
0
0
0
0
0
0
0
0
0
0
0
0
0
0
0
0
0
0
0
0
0
0
0
0
0
0
0
0
0
0
0
0
0
0
0
0
0
0
0
0
0
0
0
0
0
0
1
1
0
0
0
0
0
0
0
0
0
0
0
0
0
0
0
0
0
0
0
0
0
0
0
0
0
0
0
0
0
0
0
0
0
0
0
0
0
0
0
0
0
0
0
0
0
0
0
0
0
0
0
0
0
0
0
0
0
1
1
0
0
0
0
0
0
0
0
0
0
0
0
0
0
0
0
0
0
0
0
0
0
0
0
0
0
0
0
0
0
0
0
0
0
0
0
0
0
0
0
0
0
0
0
0
0
0
0
0
0
0
0
0
0
0
0
0
1
1
0
0
0
0
0
0
0
0
0
0
0
0
0
0
0
0
0
0
0
0
0
0
0
0
0
0
0
0
0
0
0
0
0
0
0
0
0
0
0
0
0
0
0
0
0
0
0
0
0
0
0
0
0
0
0
0
0
1
1
0
0
0
0
0
0
0
0
0
0
0
0
0
0
0
0
0
0
0
0
0
0
0
0
0
0
0
0
0
0
0
0
0
0
0
0
0
0
0
0
0
0
0
0
0
0
0
0
0
0
0
0
0
0
0
0
0
1
1
0
0
0
0
0
0
0
0
0
0
0
0
0
0
0
0
0
0
0
0
0
0
0
0
0
0
0
0
0
0
0
0
0
0
0
0
0
0
0
0
0
0
0
0
0
0
0
0
0
0
0
0
0
0
0
0
0
1
1
0
0
0
0
0
0
0
0
0
0
0
0
0
0
0
0
0
0
0
0
0
0
0
0
0
0
0
0
0
0
0
0
0
0
0
0
0
0
0
0
0
0
0
0
0
0
0
0
0
0
0
0
0
0
0
0
0
1
1
0
0
0
0
0
0
0
0
0
0
0
0
0
0
0
0
0
0
0
0
0
1
1
0
0
0
0
0
0
0
0
0
0
0
0
0
0
0
0
0
0
0
0
0
0
0
0
0
0
0
0
0
0
0
0
0
0
1
1
0
0
0
0
0
0
0
0
0
0
0
0
0
0
0
0
0
0
0
0
1
1
0
0
0
0
0
0
0
0
0
0
0
0
0
0
0
0
0
0
0
0
0
0
0
0
0
0
0
0
0
0
0
0
0
1
1
0
0
0
0
0
0
0
0
0
0
0
0
0
0
0
0
0
0
0
0
1
1
0
0
0
0
0
0
0
0
0
0
0
0
0
0
0
0
0
0
0
0
0
0
0
0
0
0
0
0
0
0
0
0
0
1
1
0
0
0
0
0
0
0
0
0
0
0
0
0
0
0
0
0
0
0
0
1
1
0
0
0
0
0
0
0
0
0
0
0
0
0
0
0
0
0
0
0
0
0
0
0
0
0
0
0
0
0
0
0
0
0
1
1
0
0
0
0
0
0
0
0
0
0
0
0
0
0
0
0
0
0
0
0
1
1
0
0
0
0
0
0
0
0
0
0
0
0
0
0
0
0
0
0
0
0
0
0
0
0
0
0
0
0
0
0
0
0
0
1
1
0
0
0
0
0
0
0
0
0
0
0
0
0
0
0
0
0
0
0
0
1
1
0
0
0
0
0
0
0
0
0
0
0
0
0
0
0
0
0
0
0
0
0
0
0
0
0
0
0
0
0
0
0
0
0
1
1
0
0
0
0
0
0
0
0
0
0
0
0
0
0
0
0
0
0
0
0
1
1
0
0
0
0
0
0
0
0
0
0
0
0
0
0
0
0
0
0
0
0
0
0
0
0
0
0
0
0
0
0
0
0
0
1
1
0
0
0
0
0
0
0
0
0
0
0
0
0
0
0
0
0
0
0
0
1
1
0
0
0
0
0
0
0
0
0
0
0
0
0
0
0
0
0
0
0
0
0
0
0
0
0
0
0
0
0
0
0
0
0
1
1
0
0
0
0
0
0
0
0
0
0
0
0
0
0
0
0
0
0
0
0
1
1
0
0
0
0
0
0
0
0
0
0
0
0
0
0
0
0
0
0
0
0
0
0
0
0
0
0
0
0
0
0
0
0
0
1
1
0
0
0
0
0
0
0
0
0
0
0
0
0
0
0
0
0
0
0
0
1
1
0
0
0
0
0
0
0
0
0
0
0
0
0
0
0
0
0
0
0
0
0
0
0
0
0
0
0
0
0
0
0
0
0
1
1
0
0
0
0
0
0
0
0
0
0
0
0
0
0
0
0
0
0
0
0
1
1
0
0
0
0
0
0
0
0
0
0
0
0
0
0
0
0
0
0
0
0
0
0
0
0
0
0
0
0
0
0
0
0
0
1
1
0
0
0
0
0
0
0
0
0
0
0
0
0
0
0
0
0
0
0
0
1
1
0
0
0
0
0
0
0
0
0
0
0
0
0
0
0
0
0
0
0
0
0
0
0
0
0
0
0
0
0
0
0
0
0
1
1
0
0
0
0
0
0
0
0
0
0
0
0
0
0
0
0
0
0
0
0
1
1
0
0
0
0
0
0
0
0
0
0
0
0
0
0
0
0
0
0
0
0
0
0
0
0
0
0
0
0
0
0
0
0
0
1
1
0
0
0
0
0
0
0
0
0
0
0
0
0
0
0
0
0
0
0
0
1
1
0
0
0
0
0
0
0
0
0
0
0
0
0
0
0
0
0
0
0
0
0
0
0
0
0
0
0
0
0
0
0
0
0
1
1
0
0
0
0
0
0
0
0
0
0
0
0
0
0
0
0
0
0
0
0
1
1
0
0
0
0
0
0
0
0
0
0
0
0
0
0
0
0
0
0
0
0
0
0
0
0
0
0
0
0
0
0
0
0
0
1
1
0
0
0
0
0
0
0
0
0
0
0
0
0
0
0
0
0
0
0
0
1
1
0
0
0
0
0
0
0
0
0
0
0
0
0
0
0
0
0
0
0
0
0
0
0
0
0
0
0
0
0
0
0
0
0
1
1
0
0
0
0
0
0
0
0
0
0
0
0
0
0
0
0
0
0
0
0
1
1
0
0
0
0
0
0
0
0
0
0
0
0
0
0
0
0
0
0
0
0
0
0
0
0
0
0
0
0
0
0
0
0
0
1
1
0
0
0
0
0
0
0
0
0
0
0
0
0
0
0
0
0
0
0
0
1
1
0
0
0
0
0
0
0
0
0
0
0
0
0
0
0
0
0
0
0
0
0
0
0
0
0
0
0
0
0
0
0
0
0
1
1
0
0
0
0
0
0
0
0
0
0
0
0
0
0
0
0
0
0
0
0
1
1
0
0
0
0
0
0
0
0
0
0
0
0
0
0
0
0
0
0
0
0
0
0
0
0
0
0
0
0
0
0
0
0
0
1
1
0
0
0
0
0
0
0
0
0
0
0
0
0
0
0
0
0
0
0
0
1
1
0
0
0
0
0
0
0
0
0
0
0
0
0
0
0
0
0
0
0
0
0
0
0
0
0
0
0
0
0
0
0
0
0
1
1
0
0
0
0
0
0
0
0
0
0
0
0
0
0
0
0
0
0
0
0
1
1
0
0
0
0
0
0
0
0
0
0
0
0
0
0
0
0
0
0
0
0
0
0
0
0
0
0
0
0
0
0
0
0
0
1
1
0
0
0
0
0
0
0
0
0
0
0
0
0
0
0
0
0
0
0
0
1
1
0
0
0
0
0
0
0
0
0
0
0
0
0
0
0
0
0
0
0
0
0
0
0
0
0
0
0
0
0
0
0
0
0
1
1
1
1
1
1
1
1
1
1
1
1
1
1
1
1
1
1
1
1
1
1
1
1
1
1
1
1
1
1
1
1
1
1
1
1
1
1
1
1
1
1
1
1
1
1
1
1
1
1
1
1
1
1
1
1
1
1
				</DataArray>
				<DataArray type="Float64" Name="h" NumberOfComponents="1" Format="ascii">
1.5000000000
1.5000000000
1.5000000000
1.5000000000
1.5000000000
1.5000000000
1.4999999791
1.4999998281
1.4999992148
1.4999974407
1.4999933917
1.4999856900
1.4999730450
1.4999546987
1.4999307942
1.4999025446
1.4998721488
1.4998424878
1.4998166848
1.4997976210
1.4997874951
1.4997874951
1.0000003574
1.0000007745
1.0000006941
1.0000005556
1.0000003946
1.0000002462
1.0000001332
1.0000000614
1.0000000237
1.0000000074
1.0000000018
1.0000000003
1.0000000000
1.0000000000
1.0000000000
1.0000000000
1.0000000000
1.0000000000
1.0000000000
1.0000000000
1.0000000000
1.0000000000
1.0000000000
1.0000000000
1.0000000000
1.0000000000
1.0000000000
1.0000000000
1.0000000000
1.0000000000
1.0000000000
1.0000000000
1.0000000000
1.0000000000
1.0000000000
1.5000000000
1.5000000000
1.5000000000
1.5000000000
1.5000000000
1.4999999812
1.4999998374
1.4999992243
1.4999973648
1.4999929210
1.4999840783
1.4999688977
1.4999458607
1.4999144205
1.4998753686
1.4998309103
1.4997844387
1.4997400777
1.4997021054
1.4996743590
1.4996597160
1.4997874951
1.0000007745
1.0000015933
1.0000014435
1.0000011815
1.0000008688
1.0000005692
1.0000003286
1.0000001650
1.0000000708
1.0000000254
1.0000000074
1.0000000017
1.0000000003
1.0000000000
1.0000000000
1.0000000000
1.0000000000
1.0000000000
1.0000000000
1.0000000000
1.0000000000
1.0000000000
1.0000000000
1.0000000000
1.0000000000
1.0000000000
1.0000000000
1.0000000000
1.0000000000
1.0000000000
1.0000000000
1.0000000000
1.0000000000
1.0000000000
1.0000000000
1.5000000000
1.5000000000
1.5000000000
1.5000000000
1.4999999746
1.4999997890
1.4999990065
1.4999966316
1.4999909019
1.4999793277
1.4999590738
1.4999276388
1.4998836120
1.4998272656
1.4997607941
1.4996881729
1.4996146930
1.4995462923
1.4994888277
1.4994473774
1.4994256673
1.4996178546
1.0000025258
1.0000047954
1.0000043959
1.0000036848
1.0000028107
1.0000019369
1.0000011949
1.0000006523
1.0000003109
1.0000001272
1.0000000437
1.0000000123
1.0000000027
1.0000000004
1.0000000000
1.0000000000
1.0000000000
1.0000000000
1.0000000000
1.0000000000
1.0000000000
1.0000000000
1.0000000000
1.0000000000
1.0000000000
1.0000000000
1.0000000000
1.0000000000
1.0000000000
1.0000000000
1.0000000000
1.0000000000
1.0000000000
1.0000000000
1.0000000000
1.5000000000
1.5000000000
1.5000000000
1.4999999681
1.4999997240
1.4999986497
1.4999952637
1.4999868187
1.4999692529
1.4999376996
1.4998875460
1.4998156876
1.4997215753
1.4996077244
1.4994795922
1.4993449569
1.4992129843
1.4990931851
1.4989944412
1.4989241615
1.4988876419
1.4992139526
1.0000089261
1.0000158575
1.0000146717
1.0000125310
1.0000098361
1.0000070497
1.0000045753
1.0000026618
1.0000013719
1.0000006177
1.0000002390
1.0000000777
1.0000000207
1.0000000043
1.0000000007
1.0000000001
1.0000000000
1.0000000000
1.0000000000
1.0000000000
1.0000000000
1.0000000000
1.0000000000
1.0000000000
1.0000000000
1.0000000000
1.0000000000
1.0000000000
1.0000000000
1.0000000000
1.0000000000
1.0000000000
1.0000000000
1.0000000000
1.0000000000
1.5000000000
1.5000000000
1.4999999628
1.4999996646
1.4999982958
1.4999938018
1.4999821514
1.4999570285
1.4999103805
1.4998339532
1.4997213713
1.4995700370
1.4993822227
1.4991651189
1.4989299546
1.4986906105
1.4984620518
1.4982588548
1.4980940118
1.4979779920
1.4979181036
1.4984531344
1.0000289137
1.0000483996
1.0000451368
1.0000391744
1.0000315127
1.0000233560
1.0000158286
1.0000097204
1.0000053530
1.0000026123
1.0000011142
1.0000004085
1.0000001261
1.0000000319
1.0000000063
1.0000000009
1.0000000001
1.0000000000
1.0000000000
1.0000000000
1.0000000000
1.0000000000
1.0000000000
1.0000000000
1.0000000000
1.0000000000
1.0000000000
1.0000000000
1.0000000000
1.0000000000
1.0000000000
1.0000000000
1.0000000000
1.0000000000
1.0000000000
1.5000000000
1.4999999595
1.4999996209
1.4999979996
1.4999924553
1.4999775105
1.4999440742
1.4998798302
1.4997712172
1.4996065674
1.4993793549
1.4990903403
1.4987480724
1.4983678180
1.4979694671
1.4975751741
1.4972071466
1.4968858590
1.4966288089
1.4964496516
1.4963577077
1.4971719731
1.0000853261
1.0001351676
1.0001269577
1.0001117863
1.0000919201
1.0000701978
1.0000494391
1.0000318449
1.0000185840
1.0000097236
1.0000045082
1.0000018271
1.0000006369
1.0000001870
1.0000000450
1.0000000085
1.0000000012
1.0000000001
1.0000000000
1.0000000000
1.0000000000
1.0000000000
1.0000000000
1.0000000000
1.0000000000
1.0000000000
1.0000000000
1.0000000000
1.0000000000
1.0000000000
1.0000000000
1.0000000000
1.0000000000
1.0000000000
1.0000000000
1.4999999441
1.4999995598
1.4999978141
1.4999914471
1.4999735893
1.4999320993
1.4998495177
1.4997053090
1.4994801931
1.4991612148
1.4987456599
1.4982424714
1.4976711189
1.4970586834
1.4964362204
1.4958354700
1.4952862422
1.4948146333
1.4944420517
1.4941846713
1.4940532810
1.4951976732
1.0002300581
1.0003461845
1.0003272862
1.0002919918
1.0002449493
1.0001922092
1.0001401461
1.0000942132
1.0000578873
1.0000322025
1.0000160530
1.0000070893
1.0000027371
1.0000009092
1.0000002546
1.0000000585
1.0000000106
1.0000000014
1.0000000001
1.0000000000
1.0000000000
1.0000000000
1.0000000000
1.0000000000
1.0000000000
1.0000000000
1.0000000000
1.0000000000
1.0000000000
1.0000000000
1.0000000000
1.0000000000
1.0000000000
1.0000000000
1.0000000000
1.4999994137
1.4999973841
1.4999909251
1.4999710648
1.4999229892
1.4998237151
1.4996443575
1.4993556201
1.4989351049
1.4983737758
1.4976792117
1.4968747382
1.4959955486
1.4950834517
1.4941817623
1.4933314956
1.4925688498
1.4919239064
1.4914203022
1.4910752681
1.4908999991
1.4923901357
1.0005683390
1.0008151262
1.0007753065
1.0007001729
1.0005983047
1.0004813322
1.0003622480
1.0002531468
1.0001629182
1.0000957176
1.0000508638
1.0000242041
1.0000102008
1.0000037588
1.0000011921
1.0000003190
1.0000000701
1.0000000121
1.0000000016
1.0000000001
1.0000000000
1.0000000000
1.0000000000
1.0000000000
1.0000000000
1.0000000000
1.0000000000
1.0000000000
1.0000000000
1.0000000000
1.0000000000
1.0000000000
1.0000000000
1.0000000000
1.0000000000
1.4999966308
1.4999889914
1.4999700529
1.4999183084
1.4998065801
1.4995972371
1.4992489201
1.4987264788
1.4980108508
1.4971052431
1.4960355780
1.4948456615
1.4935898210
1.4923254209
1.4911068972
1.4899822029
1.4889910702
1.4881646957
1.4875264039
1.4870924528
1.4868730447
1.4886813818
1.0012896353
1.0017682657
1.0016915027
1.0015451714
1.0013433794
1.0011061446
1.0008572678
1.0006208193
1.0004167808
1.0002572369
1.0001447175
1.0000735540
1.0000334554
1.0000134733
1.0000047446
1.0000014388
1.0000003683
1.0000000775
1.0000000129
1.0000000016
1.0000000001
1.0000000000
1.0000000000
1.0000000000
1.0000000000
1.0000000000
1.0000000000
1.0000000000
1.0000000000
1.0000000000
1.0000000000
1.0000000000
1.0000000000
1.0000000000
1.0000000000
1.4999862750
1.4999635829
1.4999171687
1.4998008164
1.4995715287
1.4991757234
1.4985625607
1.4976985183
1.4965780335
1.4952266467
1.4936962806
1.4920552901
1.4903777187
1.4887344595
1.4871875072
1.4857876234
1.4845740183
1.4835754285
1.4828119457
1.4822966551
1.4820372952
1.4840973488
1.0026931288
1.0035397062
1.0034046149
1.0031443405
1.0027791078
1.0023393116
1.0018637967
1.0013954516
1.0009741681
1.0006289948
1.0003725920
1.0002008462
1.0000977050
1.0000425088
1.0000163723
1.0000055152
1.0000016006
1.0000003924
1.0000000791
1.0000000126
1.0000000015
1.0000000001
1.0000000000
1.0000000000
1.0000000000
1.0000000000
1.0000000000
1.0000000000
1.0000000000
1.0000000000
1.0000000000
1.0000000000
1.0000000000
1.0000000000
1.0000000000
1.4999560027
1.4998997766
1.4998013815
1.4995702603
1.4991474630
1.4984670012
1.4974769123
1.4961571171
1.4945277277
1.4926460637
1.4905950513
1.4884680941
1.4863560882
1.4843386775
1.4824800290
1.4808285627
1.4794185240
1.4782725964
1.4774049048
1.4768233776
1.4765319962
1.4787529360
1.0051825307
1.0065451266
1.0063290682
1.0059079619
1.0053059039
1.0045623419
1.0037327040
1.0028847796
1.0020894097
1.0014068845
1.0008737671
1.0004967454
1.0002565857
1.0001194884
1.0000497417
1.0000183307
1.0000059099
1.0000016424
1.0000003860
1.0000000747
1.0000000114
1.0000000013
1.0000000001
1.0000000000
1.0000000000
1.0000000000
1.0000000000
1.0000000000
1.0000000000
1.0000000000
1.0000000000
1.0000000000
1.0000000000
1.0000000000
1.0000000000
1.4998825053
1.4997620405
1.4995771315
1.4991641493
1.4984535415
1.4973767959
1.4958943999
1.4940140518
1.4917930277
1.4893267440
1.4867299182
1.4841175379
1.4815914906
1.4792336228
1.4771041322
1.4752439574
1.4736783434
1.4724209352
1.4714777319
1.4708499975
1.4705369533
1.4728219966
1.0091979784
1.0111867014
1.0108749103
1.0102591348
1.0093601773
1.0082186159
1.0069008683
1.0055000133
1.0041270954
1.0028917599
1.0018771017
1.0011205834
1.0006110443
1.0003023073
1.0001347339
1.0000536657
1.0000189241
1.0000058404
1.0000015548
1.0000003503
1.0000000651
1.0000000096
1.0000000011
1.0000000001
1.0000000000
1.0000000000
1.0000000000
1.0000000000
1.0000000000
1.0000000000
1.0000000000
1.0000000000
1.0000000000
1.0000000000
1.0000000000
1.4997288755
1.4994998611
1.4991859451
1.4985121280
1.4974100176
1.4958245704
1.4937457844
1.4912232691
1.4883597506
1.4852904272
1.4821582271
1.4790930716
1.4762002988
1.4735569283
1.4712134434
1.4691989597
1.4675266676
1.4661990792
1.4652126552
1.4645609705
1.4642377436
1.4664987987
1.0150675381
1.0176888925
1.0172871429
1.0164808056
1.0152744203
1.0136930149
1.0117968907
1.0096921977
1.0075294404
1.0054830103
1.0037122002
1.0023196723
1.0013293183
1.0006945012
1.0003288296
1.0001401856
1.0000534049
1.0000180157
1.0000053219
1.0000013571
1.0000002932
1.0000000523
1.0000000074
1.0000000008
1.0000000001
1.0000000000
1.0000000000
1.0000000000
1.0000000000
1.0000000000
1.0000000000
1.0000000000
1.0000000000
1.0000000000
1.0000000000
1.4994451968
1.4990510958
1.4985621663
1.4975453536
1.4959506471
1.4937566196
1.4910005981
1.4877856167
1.4842635625
1.4806065673
1.4769788809
1.4735171121
1.4703222565
1.4674601820
1.4649670008
1.4628569075
1.4611290809
1.4597737354
1.4587769974
1.4581240733
1.4578024779
1.4599667304
1.0228152040
1.0259266625
1.0254716096
1.0245382374
1.0230980568
1.0211370667
1.0186806071
1.0158182250
1.0127187499
1.0096206934
1.0067860214
1.0044294496
1.0026588293
1.0014599775
1.0007297534
1.0003303157
1.0001345833
1.0000490034
1.0000158061
1.0000044671
1.0000010907
1.0000002259
1.0000000387
1.0000000053
1.0000000005
1.0000000000
1.0000000000
1.0000000000
1.0000000000
1.0000000000
1.0000000000
1.0000000000
1.0000000000
1.0000000000
1.0000000000
1.4989731451
1.4983491998
1.4976413151
1.4962059446
1.4940316766
1.4911519197
1.4876673637
1.4837419929
1.4795762677
1.4753731410
1.4713097882
1.4675211673
1.4640970494
1.4610870760
1.4585096968
1.4563622536
1.4546289614
1.4532872712
1.4523126190
1.4516812216
1.4513734118
1.4533819643
1.0320371441
1.0353649622
1.0349246633
1.0339895708
1.0324821960
1.0303264846
1.0274800104
1.0239726429
1.0199452191
1.0156681834
1.0115087639
1.0078381938
1.0049174637
1.0028279170
1.0014846919
1.0007088089
1.0003062993
1.0001191359
1.0000414217
1.0000127636
1.0000034483
1.0000008057
1.0000001598
1.0000000262
1.0000000034
1.0000000003
1.0000000000
1.0000000000
1.0000000000
1.0000000000
1.0000000000
1.0000000000
1.0000000000
1.0000000000
1.0000000000
1.4982537304
1.4973325014
1.4963688385
1.4944541123
1.4916355593
1.4880208140
1.4837864272
1.4791609843
1.4743898846
1.4696994301
1.4652713480
1.4612316384
1.4576532615
1.4545659041
1.4519681488
1.4498394976
1.4481489594
1.4468613279
1.4459412542
1.4453551929
1.4450745584
1.4468765569
1.0419611643
1.0451874408
1.0448507958
1.0440790398
1.0427339214
1.0406633605
1.0377342025
1.0338762171
1.0291414994
1.0237643013
1.0181731240
1.0129078538
1.0084529843
1.0050784172
1.0027895700
1.0013970458
1.0006358345
1.0002618973
1.0000971115
1.0000321989
1.0000094667
1.0000024422
1.0000005454
1.0000001035
1.0000000163
1.0000000020
1.0000000002
1.0000000000
1.0000000000
1.0000000000
1.0000000000
1.0000000000
1.0000000000
1.0000000000
1.0000000000
1.4972360307
1.4959529536
1.4947071023
1.4922716779
1.4887698681
1.4843989896
1.4794200130
1.4741267488
1.4688046212
1.4636959113
1.4589796351
1.4547668075
1.4511092217
1.4480137510
1.4454576221
1.4434020761
1.4418013101
1.4406081716
1.4397768624
1.4392630760
1.4390261835
1.4405731056
1.0516885139
1.0545555332
1.0544204607
1.0539859173
1.0530429925
1.0513616923
1.0487157854
1.0449173134
1.0398806205
1.0337193003
1.0268285129
1.0198651165
1.0135698178
1.0085032619
1.0048726684
1.0025487028
1.0012145722
1.0005258958
1.0002061013
1.0000727309
1.0000229593
1.0000064307
1.0000015817
1.0000003371
1.0000000612
1.0000000092
1.0000000011
1.0000000001
1.0000000000
1.0000000000
1.0000000000
1.0000000000
1.0000000000
1.0000000000
1.0000000000
1.4958843889
1.4941821345
1.4926391612
1.4896621154
1.4854631380
1.4803400999
1.4746432984
1.4687307069
1.4629227843
1.4574715187
1.4525472020
1.4482409421
1.4445795928
1.4415446922
1.4390908241
1.4371609971
1.4356957950
1.4346380066
1.4339328464
1.4335244158
1.4333546572
1.4345986678
1.0604628142
1.0628269902
1.0630032884
1.0630754549
1.0627471075
1.0617156398
1.0596803547
1.0563510611
1.0514924832
1.0450339570
1.0372210806
1.0287068328
1.0204424100
1.0133467501
1.0079618221
1.0043344903
1.0021522267
1.0009734600
1.0004001133
1.0001488819
1.0000498979
1.0000149667
1.0000039854
1.0000009326
1.0000001893
1.0000000328
1.0000000047
1.0000000005
1.0000000000
1.0000000000
1.0000000000
1.0000000000
1.0000000000
1.0000000000
1.0000000000
1.4941829095
1.4920141367
1.4901699820
1.4866491606
1.4817612836
1.4759112059
1.4695407347
1.4630700685
1.4568504203
1.4511383150
1.4460903115
1.4417730330
1.4381845405
1.4352781734
1.4329845031
1.4312288617
1.4299408888
1.4290576435
1.4285196676
1.4282602575
1.4281954113
1.4290937428
1.0677782541
1.0695932497
1.0702344983
1.0710003603
1.0714723347
1.0712807349
1.0700831358
1.0675315948
1.0632740400
1.0570423307
1.0488423724
1.0391686999
1.0290480284
1.0197422121
1.0122407064
1.0069170411
1.0035640904
1.0016748851
1.0007171671
1.0002791252
1.0000983718
1.0000312365
1.0000088799
1.0000022422
1.0000004979
1.0000000960
1.0000000158
1.0000000022
1.0000000002
1.0000000000
1.0000000000
1.0000000000
1.0000000000
1.0000000000
1.0000000000
1.4921370759
1.4894659136
1.4873259857
1.4832754177
1.4777257397
1.4711916452
1.4642065156
1.4572505671
1.4507020658
1.4448177111
1.4397355094
1.4354926413
1.4320536362
1.4293399388
1.4272564548
1.4257122388
1.4246312198
1.4239536514
1.4236261074
1.4235775595
1.4236872195
1.4242118571
1.0732814796
1.0745447810
1.0759260575
1.0776494936
1.0791170958
1.0798993259
1.0796559878
1.0780453645
1.0746658090
1.0690926238
1.0610616311
1.0507765391
1.0391497339
1.0276664784
1.0178059390
1.0104211895
1.0055532936
1.0026988032
1.0011968182
1.0004837912
1.0001778008
1.0000591821
1.0000177514
1.0000047679
1.0000011380
1.0000002390
1.0000000436
1.0000000068
1.0000000009
1.0000000001
1.0000000000
1.0000000000
1.0000000000
1.0000000000
1.0000000000
1.4897732224
1.4865761142
1.4841539112
1.4796013943
1.4734331886
1.4662737214
1.4587465031
1.4513891667
1.4446036511
1.4386424799
1.4336197895
1.4295371656
1.4263193979
1.4238510636
1.4220092593
1.4206892668
1.4198181933
1.4193561555
1.4192794040
1.4195355953
1.4199634782
1.4201127597
1.0765450203
1.0772522303
1.0799349916
1.0830547177
1.0857735441
1.0876347465
1.0883677444
1.0877176782
1.0853196300
1.0806701184
1.0732662299
1.0629505614
1.0503355302
1.0369287729
1.0246380146
1.0149073804
1.0081922380
1.0041007246
1.0018736883
1.0007817445
1.0002974066
1.0001028821
1.0000322321
1.0000090990
1.0000023003
1.0000005168
1.0000001022
1.0000000176
1.0000000026
1.0000000003
1.0000000000
1.0000000000
1.0000000000
1.0000000000
1.0000000000
1.4871376534
1.4834043174
1.4807204410
1.4757059082
1.4689767498
1.4612646149
1.4532801938
1.4456154458
1.4386922642
1.4327541200
1.4278847706
1.4240423896
1.4211039198
1.4189103631
1.4173078535
1.4161808026
1.4154721941
1.4151895074
1.4153866684
1.4160966541
1.4171654297
1.4169726186
1.0767709177
1.0768964667
1.0820900926
1.0873673782
1.0916911640
1.0947099402
1.0963501248
1.0965488170
1.0950715326
1.0914268426
1.0849444665
1.0751042481
1.0620859409
1.0471899840
1.0325900395
1.0203525694
1.0115064448
1.0059119032
1.0027705648
1.0011864852
1.0004642182
1.0001656354
1.0000537265
1.0000157770
1.0000041732
1.0000009882
1.0000002079
1.0000000385
1.0000000062
1.0000000009
1.0000000001
1.0000000000
1.0000000000
1.0000000000
1.0000000000
1.4842960134
1.4800306025
1.4771119724
1.4716860362
1.4644659577
1.4562857319
1.4479388379
1.4400675661
1.4331094142
1.4272929287
1.4226636063
1.4191266071
1.4165008517
1.4145748045
1.4131578242
1.4121238656
1.4114444255
1.4112123369
1.4116474384
1.4130422950
1.4155158506
1.4150497837
1.0724281329
1.0719250530
1.0822934620
1.0910016779
1.0973473878
1.1015064126
1.1038523304
1.1046508466
1.1038856790
1.1011576562
1.0957108976
1.0867104969
1.0738435129
1.0580008440
1.0413927252
1.0266400364
1.0154627092
1.0081302700
1.0038924074
1.0017025438
1.0006810941
1.0002489782
1.0000829700
1.0000251183
1.0000068790
1.0000016954
1.0000003737
1.0000000731
1.0000000126
1.0000000019
1.0000000002
1.0000000000
1.0000000000
1.0000000000
1.0000000000
1.4813326768
1.4765547125
1.4734334312
1.4676552870
1.4600237769
1.4514681356
1.4428586006
1.4348828146
1.4279886658
1.4223830447
1.4180642332
1.4148734871
1.4125597977
1.4108470313
1.4094962071
1.4083610134
1.4074406319
1.4069460580
1.4074004669
1.4097731802
1.4155126848
1.4148681819
1.0614983197
1.0603167990
1.0813725739
1.0951706297
1.1036700255
1.1086179563
1.1112227604
1.1122036181
1.1118069232
1.1097667526
1.1053049594
1.0973407619
1.0850745262
1.0688508471
1.0506731031
1.0335577593
1.0199618030
1.0107141034
1.0052221096
1.0023229067
1.0009452660
1.0003519217
1.0001196646
1.0000370562
1.0000104119
1.0000026425
1.0000006026
1.0000001227
1.0000000221
1.0000000035
1.0000000005
1.0000000001
1.0000000000
1.0000000000
1.0000000000
1.4783498213
1.4730942652
1.4698058325
1.4637399512
1.4557814199
1.4469454522
1.4381714634
1.4301864066
1.4234427820
1.4181188132
1.4141566452
1.4113228733
1.4092839924
1.4076838490
1.4062130756
1.4046707833
1.4030353812
1.4016013024
1.4013269011
1.4047569983
1.4183637843
1.4176449851
1.0499087792
1.0481386066
1.0855958043
1.1035081834
1.1124694126
1.1168959280
1.1188580713
1.1193940164
1.1189096056
1.1172308801
1.1135771246
1.1066850142
1.0953195179
1.0792221934
1.0599848633
1.0408045359
1.0248346233
1.0135776306
1.0067178155
1.0030276455
1.0012476606
1.0004706130
1.0001623111
1.0000510617
1.0000146041
1.0000037819
1.0000008825
1.0000001845
1.0000000343
1.0000000056
1.0000000008
1.0000000001
1.0000000000
1.0000000000
1.0000000000
1.4754641921
1.4697801099
1.4663609110
1.4600725397
1.4518702983
1.4428443869
1.4339944168
1.4260798743
1.4195520946
1.4145545972
1.4109664313
1.4084713590
1.4066427486
1.4050259924
1.4031998754
1.4008040996
1.3975220719
1.3929959104
1.3865934725
1.3767258954
1.3586098756
1.3040338974
1.2212397428
1.2184304933
1.1559064208
1.1245961865
1.1226293061
1.1246659907
1.1263849134
1.1270905972
1.1269463032
1.1262688277
1.1252159680
1.1235527650
1.1204669618
1.1145589936
1.1042340737
1.0886484102
1.0688541903
1.0480093472
1.0298448522
1.0165893917
1.0083118733
1.0037837795
1.0015730847
1.0005985123
1.0002083065
1.0000661844
1.0000191390
1.0000050179
1.0000011873
1.0000002522
1.0000000478
1.0000000080
1.0000000012
1.0000000002
1.0000000000
1.0000000000
1.0000000000
1.4728009949
1.4667488579
1.4632333686
1.4567835751
1.4484134308
1.4392759306
1.4304209602
1.4226334860
1.4163588933
1.4117026796
1.4084787841
1.4062879615
1.4046127894
1.4029061003
1.4006472361
1.3973483762
1.3924963583
1.3854049963
1.3749239039
1.3588709096
1.3329539574
1.2857261066
1.2198948237
1.2169768910
1.1830799657
1.1575338010
1.1466861264
1.1417960431
1.1388936790
1.1365420692
1.1343597310
1.1323565391
1.1305576313
1.1287002383
1.1259708392
1.1208944696
1.1116102854
1.0967654370
1.0768356971
1.0547668578
1.0347026116
1.0195757141
1.0099120395
1.0045463569
1.0019011687
1.0007270237
1.0002542844
1.0000812069
1.0000236121
1.0000062276
1.0000014832
1.0000003173
1.0000000606
1.0000000103
1.0000000015
1.0000000002
1.0000000000
1.0000000000
1.0000000000
1.4704856003
1.4641338839
1.4605522462
1.4539936889
1.4455185751
1.4363299368
1.4275175357
1.4198850594
1.4138689064
1.4095369857
1.4066420480
1.4047096503
1.4031442678
1.4013258315
1.3986670570
1.3946146457
1.3885891763
1.3798612412
1.3673732629
1.3495354516
1.3241290264
1.2879205514
1.2455607724
1.2252048295
1.1993959219
1.1777692583
1.1640000828
1.1552942134
1.1492279285
1.1445008525
1.1405919332
1.1373812209
1.1348329799
1.1326861759
1.1301513267
1.1257270403
1.1173747407
1.1033387863
1.0835617575
1.0606826171
1.0390905387
1.0223319225
1.0114061949
1.0052609575
1.0022079086
1.0008464042
1.0002965896
1.0000948620
1.0000276188
1.0000072925
1.0000017384
1.0000003721
1.0000000711
1.0000000120
1.0000000018
1.0000000002
1.0000000000
1.0000000000
1.0000000000
1.4686335160
1.4620553240
1.4584318290
1.4518061488
1.4432729576
1.4340725031
1.4253240369
1.4178439583
1.4120589037
1.4080037518
1.4053796249
1.4036509387
1.4021621046
1.4002426888
1.3972687045
1.3926661040
1.3858611503
1.3761931356
1.3628321179
1.3447735865
1.3210441723
1.2911719068
1.2586943097
1.2343601367
1.2109227638
1.1909069459
1.1759603519
1.1651182622
1.1569830927
1.1505576086
1.1453405053
1.1411702034
1.1379897976
1.1355548158
1.1331109650
1.1291604979
1.1215581347
1.1082583646
1.0887702308
1.0654165829
1.0426997977
1.0246432817
1.0126725264
1.0058684182
1.0024678945
1.0009468204
1.0003317615
1.0001060388
1.0000308339
1.0000081263
1.0000019323
1.0000004123
1.0000000784
1.0000000132
1.0000000019
1.0000000002
1.0000000000
1.0000000000
1.0000000000
1.4673408548
1.4606113281
1.4569642039
1.4503017583
1.4417412798
1.4325476666
1.4238595978
1.4165012146
1.4108910095
1.4070392979
1.4046099507
1.4030245931
1.4015876895
1.3995986148
1.3964168866
1.3914689828
1.3842083502
1.3740535020
1.3603587252
1.3424895771
1.3200870794
1.2935704080
1.2655054147
1.2408216720
1.2182822408
1.1988858938
1.1833968400
1.1714024930
1.1620336812
1.1545321207
1.1484553000
1.1436372018
1.1400165006
1.1373659255
1.1349627994
1.1313239971
1.1242478366
1.1115047918
1.0923024140
1.0687108625
1.0452664657
1.0263126149
1.0135950471
1.0063120476
1.0026572643
1.0010194539
1.0003569213
1.0001139107
1.0000330519
1.0000086861
1.0000020579
1.0000004372
1.0000000827
1.0000000138
1.0000000020
1.0000000003
1.0000000000
1.0000000000
1.0000000000
1.4666765729
1.4598714142
1.4562139535
1.4495359446
1.4409659908
1.4317813829
1.4231305718
1.4158414647
1.4103280851
1.4065878009
1.4042651650
1.4027601278
1.4013577546
1.3993441227
1.3960736634
1.3909776434
1.3835285299
1.3731889729
1.3594034898
1.3417009758
1.3199633286
1.2948657367
1.2685111348
1.2440349471
1.2218306959
1.2026153384
1.1868642058
1.1743334747
1.1643766992
1.1563577394
1.1498701670
1.1447466625
1.1409218268
1.1381760069
1.1358037748
1.1323330675
1.1255388881
1.1131029390
1.0940787212
1.0703975574
1.0465996395
1.0271885225