<VTKFile type="UnstructuredGrid" version="0.1">
	<UnstructuredGrid>
		<Piece NumberOfPoints="13548" NumberOfCells="3387">
			<CellData>
				<DataArray type="Int32" Name="ghost" NumberOfComponents="1" Format="ascii">
1
1
1
1
1
1
1
1
1
1
1
1
1
1
1
1
1
1
1
1
1
1
1
1
1
1
1
1
1
1
1
1
1
1
1
1
1
1
1
1
1
1
1
1
1
1
1
1
1
1
1
1
1
1
1
1
1
1
0
0
0
0
0
0
0
0
0
0
0
0
0
0
0
0
0
0
0
0
1
1
0
0
0
0
0
0
0
0
0
0
0
0
0
0
0
0
0
0
0
0
0
0
0
0
0
0
0
0
0
0
0
0
0
1
1
0
0
0
0
0
0
0
0
0
0
0
0
0
0
0
0
0
0
0
0
1
1
0
0
0
0
0
0
0
0
0
0
0
0
0
0
0
0
0
0
0
0
0
0
0
0
0
0
0
0
0
0
0
0
0
1
1
0
0
0
0
0
0
0
0
0
0
0
0
0
0
0
0
0
0
0
0
1
1
0
0
0
0
0
0
0
0
0
0
0
0
0
0
0
0
0
0
0
0
0
0
0
0
0
0
0
0
0
0
0
0
0
1
1
0
0
0
0
0
0
0
0
0
0
0
0
0
0
0
0
0
0
0
0
1
1
0
0
0
0
0
0
0
0
0
0
0
0
0
0
0
0
0
0
0
0
0
0
0
0
0
0
0
0
0
0
0
0
0
1
1
0
0
0
0
0
0
0
0
0
0
0
0
0
0
0
0
0
0
0
0
1
1
0
0
0
0
0
0
0
0
0
0
0
0
0
0
0
0
0
0
0
0
0
0
0
0
0
0
0
0
0
0
0
0
0
1
1
0
0
0
0
0
0
0
0
0
0
0
0
0
0
0
0
0
0
0
0
1
1
0
0
0
0
0
0
0
0
0
0
0
0
0
0
0
0
0
0
0
0
0
0
0
0
0
0
0
0
0
0
0
0
0
1
1
0
0
0
0
0
0
0
0
0
0
0
0
0
0
0
0
0
0
0
0
1
1
0
0
0
0
0
0
0
0
0
0
0
0
0
0
0
0
0
0
0
0
0
0
0
0
0
0
0
0
0
0
0
0
0
1
1
0
0
0
0
0
0
0
0
0
0
0
0
0
0
0
0
0
0
0
0
1
1
0
0
0
0
0
0
0
0
0
0
0
0
0
0
0
0
0
0
0
0
0
0
0
0
0
0
0
0
0
0
0
0
0
1
1
0
0
0
0
0
0
0
0
0
0
0
0
0
0
0
0
0
0
0
0
1
1
0
0
0
0
0
0
0
0
0
0
0
0
0
0
0
0
0
0
0
0
0
0
0
0
0
0
0
0
0
0
0
0
0
1
1
0
0
0
0
0
0
0
0
0
0
0
0
0
0
0
0
0
0
0
0
1
1
0
0
0
0
0
0
0
0
0
0
0
0
0
0
0
0
0
0
0
0
0
0
0
0
0
0
0
0
0
0
0
0
0
1
1
0
0
0
0
0
0
0
0
0
0
0
0
0
0
0
0
0
0
0
0
1
1
0
0
0
0
0
0
0
0
0
0
0
0
0
0
0
0
0
0
0
0
0
0
0
0
0
0
0
0
0
0
0
0
0
1
1
0
0
0
0
0
0
0
0
0
0
0
0
0
0
0
0
0
0
0
0
1
1
0
0
0
0
0
0
0
0
0
0
0
0
0
0
0
0
0
0
0
0
0
0
0
0
0
0
0
0
0
0
0
0
0
1
1
0
0
0
0
0
0
0
0
0
0
0
0
0
0
0
0
0
0
0
0
1
1
0
0
0
0
0
0
0
0
0
0
0
0
0
0
0
0
0
0
0
0
0
0
0
0
0
0
0
0
0
0
0
0
0
1
1
0
0
0
0
0
0
0
0
0
0
0
0
0
0
0
0
0
0
0
0
1
1
0
0
0
0
0
0
0
0
0
0
0
0
0
0
0
0
0
0
0
0
0
0
0
0
0
0
0
0
0
0
0
0
0
1
1
0
0
0
0
0
0
0
0
0
0
0
0
0
0
0
0
0
0
0
0
1
1
0
0
0
0
0
0
0
0
0
0
0
0
0
0
0
0
0
0
0
0
0
0
0
0
0
0
0
0
0
0
0
0
0
1
1
0
0
0
0
0
0
0
0
0
0
0
0
0
0
0
0
0
0
0
0
1
1
0
0
0
0
0
0
0
0
0
0
0
0
0
0
0
0
0
0
0
0
0
0
0
0
0
0
0
0
0
0
0
0
0
1
1
0
0
0
0
0
0
0
0
0
0
0
0
0
0
0
0
0
0
0
0
1
1
0
0
0
0
0
0
0
0
0
0
0
0
0
0
0
0
0
0
0
0
0
0
0
0
0
0
0
0
0
0
0
0
0
1
1
0
0
0
0
0
0
0
0
0
0
0
0
0
0
0
0
0
0
0
0
1
1
0
0
0
0
0
0
0
0
0
0
0
0
0
0
0
0
0
0
0
0
0
0
0
0
0
0
0
0
0
0
0
0
0
1
1
0
0
0
0
0
0
0
0
0
0
0
0
0
0
0
0
0
0
0
0
1
1
0
0
0
0
0
0
0
0
0
0
0
0
0
0
0
0
0
0
0
0
0
0
0
0
0
0
0
0
0
0
0
0
0
1
1
0
0
0
0
0
0
0
0
0
0
0
0
0
0
0
0
0
0
0
0
1
1
0
0
0
0
0
0
0
0
0
0
0
0
0
0
0
0
0
0
0
0
0
0
0
0
0
0
0
0
0
0
0
0
0
1
1
0
0
0
0
0
0
0
0
0
0
0
0
0
0
0
0
0
0
0
0
1
1
0
0
0
0
0
0
0
0
0
0
0
0
0
0
0
0
0
0
0
0
0
0
0
0
0
0
0
0
0
0
0
0
0
1
1
0
0
0
0
0
0
0
0
0
0
0
0
0
0
0
0
0
0
0
0
1
1
0
0
0
0
0
0
0
0
0
0
0
0
0
0
0
0
0
0
0
0
0
0
0
0
0
0
0
0
0
0
0
0
0
1
1
0
0
0
0
0
0
0
0
0
0
0
0
0
0
0
0
0
0
0
0
1
1
0
0
0
0
0
0
0
0
0
0
0
0
0
0
0
0
0
0
0
0
0
0
0
0
0
0
0
0
0
0
0
0
0
1
1
0
0
0
0
0
0
0
0
0
0
0
0
0
0
0
0
0
0
0
0
1
1
0
0
0
0
0
0
0
0
0
0
0
0
0
0
0
0
0
0
0
0
0
0
0
0
0
0
0
0
0
0
0
0
0
1
1
0
0
0
0
0
0
0
0
0
0
0
0
0
0
0
0
0
0
0
0
0
1
1
0
0
0
0
0
0
0
0
0
0
0
0
0
0
0
0
0
0
0
0
0
0
0
0
0
0
0
0
0
0
0
0
0
0
1
1
0
0
0
0
0
0
0
0
0
0
0
0
0
0
0
0
0
0
0
0
0
0
0
0
0
0
0
0
0
0
0
0
0
0
0
0
0
0
0
0
0
0
0
0
0
0
0
0
0
0
0
0
0
0
0
0
0
1
1
0
0
0
0
0
0
0
0
0
0
0
0
0
0
0
0
0
0
0
0
0
0
0
0
0
0
0
0
0
0
0
0
0
0
0
0
0
0
0
0
0
0
0
0
0
0
0
0
0
0
0
0
0
0
0
0
0
1
1
0
0
0
0
0
0
0
0
0
0
0
0
0
0
0
0
0
0
0
0
0
0
0
0
0
0
0
0
0
0
0
0
0
0
0
0
0
0
0
0
0
0
0
0
0
0
0
0
0
0
0
0
0
0
0
0
0
1
1
0
0
0
0
0
0
0
0
0
0
0
0
0
0
0
0
0
0
0
0
0
0
0
0
0
0
0
0
0
0
0
0
0
0
0
0
0
0
0
0
0
0
0
0
0
0
0
0
0
0
0
0
0
0
0
0
0
1
1
0
0
0
0
0
0
0
0
0
0
0
0
0
0
0
0
0
0
0
0
0
0
0
0
0
0
0
0
0
0
0
0
0
0
0
0
0
0
0
0
0
0
0
0
0
0
0
0
0
0
0
0
0
0
0
0
0
1
1
0
0
0
0
0
0
0
0
0
0
0
0
0
0
0
0
0
0
0
0
0
0
0
0
0
0
0
0
0
0
0
0
0
0
0
0
0
0
0
0
0
0
0
0
0
0
0
0
0
0
0
0
0
0
0
0
0
1
1
0
0
0
0
0
0
0
0
0
0
0
0
0
0
0
0
0
0
0
0
0
0
0
0
0
0
0
0
0
0
0
0
0
0
0
0
0
0
0
0
0
0
0
0
0
0
0
0
0
0
0
0
0
0
0
0
0
1
1
0
0
0
0
0
0
0
0
0
0
0
0
0
0
0
0
0
0
0
0
0
0
0
0
0
0
0
0
0
0
0
0
0
0
0
0
0
0
0
0
0
0
0
0
0
0
0
0
0
0
0
0
0
0
0
0
0
1
1
0
0
0
0
0
0
0
0
0
0
0
0
0
0
0
0
0
0
0
0
0
0
0
0
0
0
0
0
0
0
0
0
0
0
0
0
0
0
0
0
0
0
0
0
0
0
0
0
0
0
0
0
0
0
0
0
0
1
1
0
0
0
0
0
0
0
0
0
0
0
0
0
0
0
0
0
0
0
0
0
0
0
0
0
0
0
0
0
0
0
0
0
0
0
0
0
0
0
0
0
0
0
0
0
0
0
0
0
0
0
0
0
0
0
0
0
1
1
0
0
0
0
0
0
0
0
0
0
0
0
0
0
0
0
0
0
0
0
0
1
1
0
0
0
0
0
0
0
0
0
0
0
0
0
0
0
0
0
0
0
0
0
0
0
0
0
0
0
0
0
0
0
0
0
0
1
1
0
0
0
0
0
0
0
0
0
0
0
0
0
0
0
0
0
0
0
0
1
1
0
0
0
0
0
0
0
0
0
0
0
0
0
0
0
0
0
0
0
0
0
0
0
0
0
0
0
0
0
0
0
0
0
1
1
0
0
0
0
0
0
0
0
0
0
0
0
0
0
0
0
0
0
0
0
1
1
0
0
0
0
0
0
0
0
0
0
0
0
0
0
0
0
0
0
0
0
0
0
0
0
0
0
0
0
0
0
0
0
0
1
1
0
0
0
0
0
0
0
0
0
0
0
0
0
0
0
0
0
0
0
0
1
1
0
0
0
0
0
0
0
0
0
0
0
0
0
0
0
0
0
0
0
0
0
0
0
0
0
0
0
0
0
0
0
0
0
1
1
0
0
0
0
0
0
0
0
0
0
0
0
0
0
0
0
0
0
0
0
1
1
0
0
0
0
0
0
0
0
0
0
0
0
0
0
0
0
0
0
0
0
0
0
0
0
0
0
0
0
0
0
0
0
0
1
1
0
0
0
0
0
0
0
0
0
0
0
0
0
0
0
0
0
0
0
0
1
1
0
0
0
0
0
0
0
0
0
0
0
0
0
0
0
0
0
0
0
0
0
0
0
0
0
0
0
0
0
0
0
0
0
1
1
0
0
0
0
0
0
0
0
0
0
0
0
0
0
0
0
0
0
0
0
1
1
0
0
0
0
0
0
0
0
0
0
0
0
0
0
0
0
0
0
0
0
0
0
0
0
0
0
0
0
0
0
0
0
0
1
1
0
0
0
0
0
0
0
0
0
0
0
0
0
0
0
0
0
0
0
0
1
1
0
0
0
0
0
0
0
0
0
0
0
0
0
0
0
0
0
0
0
0
0
0
0
0
0
0
0
0
0
0
0
0
0
1
1
0
0
0
0
0
0
0
0
0
0
0
0
0
0
0
0
0
0
0
0
1
1
0
0
0
0
0
0
0
0
0
0
0
0
0
0
0
0
0
0
0
0
0
0
0
0
0
0
0
0
0
0
0
0
0
1
1
0
0
0
0
0
0
0
0
0
0
0
0
0
0
0
0
0
0
0
0
1
1
0
0
0
0
0
0
0
0
0
0
0
0
0
0
0
0
0
0
0
0
0
0
0
0
0
0
0
0
0
0
0
0
0
1
1
0
0
0
0
0
0
0
0
0
0
0
0
0
0
0
0
0
0
0
0
1
1
0
0
0
0
0
0
0
0
0
0
0
0
0
0
0
0
0
0
0
0
0
0
0
0
0
0
0
0
0
0
0
0
0
1
1
0
0
0
0
0
0
0
0
0
0
0
0
0
0
0
0
0
0
0
0
1
1
0
0
0
0
0
0
0
0
0
0
0
0
0
0
0
0
0
0
0
0
0
0
0
0
0
0
0
0
0
0
0
0
0
1
1
0
0
0
0
0
0
0
0
0
0
0
0
0
0
0
0
0
0
0
0
1
1
0
0
0
0
0
0
0
0
0
0
0
0
0
0
0
0
0
0
0
0
0
0
0
0
0
0
0
0
0
0
0
0
0
1
1
0
0
0
0
0
0
0
0
0
0
0
0
0
0
0
0
0
0
0
0
1
1
0
0
0
0
0
0
0
0
0
0
0
0
0
0
0
0
0
0
0
0
0
0
0
0
0
0
0
0
0
0
0
0
0
1
1
0
0
0
0
0
0
0
0
0
0
0
0
0
0
0
0
0
0
0
0
1
1
0
0
0
0
0
0
0
0
0
0
0
0
0
0
0
0
0
0
0
0
0
0
0
0
0
0
0
0
0
0
0
0
0
1
1
0
0
0
0
0
0
0
0
0
0
0
0
0
0
0
0
0
0
0
0
1
1
0
0
0
0
0
0
0
0
0
0
0
0
0
0
0
0
0
0
0
0
0
0
0
0
0
0
0
0
0
0
0
0
0
1
1
0
0
0
0
0
0
0
0
0
0
0
0
0
0
0
0
0
0
0
0
1
1
0
0
0
0
0
0
0
0
0
0
0
0
0
0
0
0
0
0
0
0
0
0
0
0
0
0
0
0
0
0
0
0
0
1
1
0
0
0
0
0
0
0
0
0
0
0
0
0
0
0
0
0
0
0
0
1
1
0
0
0
0
0
0
0
0
0
0
0
0
0
0
0
0
0
0
0
0
0
0
0
0
0
0
0
0
0
0
0
0
0
1
1
0
0
0
0
0
0
0
0
0
0
0
0
0
0
0
0
0
0
0
0
1
1
0
0
0
0
0
0
0
0
0
0
0
0
0
0
0
0
0
0
0
0
0
0
0
0
0
0
0
0
0
0
0
0
0
1
1
0
0
0
0
0
0
0
0
0
0
0
0
0
0
0
0
0
0
0
0
1
1
0
0
0
0
0
0
0
0
0
0
0
0
0
0
0
0
0
0
0
0
0
0
0
0
0
0
0
0
0
0
0
0
0
1
1
0
0
0
0
0
0
0
0
0
0
0
0
0
0
0
0
0
0
0
0
1
1
0
0
0
0
0
0
0
0
0
0
0
0
0
0
0
0
0
0
0
0
0
0
0
0
0
0
0
0
0
0
0
0
0
1
1
0
0
0
0
0
0
0
0
0
0
0
0
0
0
0
0
0
0
0
0
1
1
0
0
0
0
0
0
0
0
0
0
0
0
0
0
0
0
0
0
0
0
0
0
0
0
0
0
0
0
0
0
0
0
0
1
1
1
1
1
1
1
1
1
1
1
1
1
1
1
1
1
1
1
1
1
1
1
1
1
1
1
1
1
1
1
1
1
1
1
1
1
1
1
1
1
1
1
1
1
1
1
1
1
1
1
1
1
1
1
1
1
1
				</DataArray>
				<DataArray type="Float64" Name="h" NumberOfComponents="1" Format="ascii">
1.1951988710
1.1934748363
1.1934079404
1.1932754982
1.1930770110
1.1928122900
1.1924820208
1.1920882019
1.1916349669
1.1911290542
1.1905799720
1.1900001298
1.1894045088
1.1888100998
1.1882351388
1.1876981882
1.1872173722
1.1868093884
1.1864887012
1.1862671194
1.1861530074
1.1861530074
1.2233894168
1.2259621143
1.2245952582
1.2219830294
1.2182802891
1.2137175585
1.2085849358
1.2032016733
1.1978804585
1.1928924550
1.1884410336
1.1846512238
1.1815722935
1.1791896390
1.1774422165
1.1762401864
1.1754804210
1.1750583495
1.1748762062
1.1748485770
1.1749046877
1.1749892016
1.1750623772
1.1750983276
1.1750832805
1.1750141722
1.1748959256
1.1747393092
1.1745594362
1.1743732043
1.1741975286
1.1740483256
1.1739386184
1.1738775199
1.1738775199
1.1934748363
1.1917330553
1.1916499640
1.1914848255
1.1912366688
1.1909048377
1.1904898003
1.1899938366
1.1894220571
1.1887830160
1.1880889162
1.1873556764
1.1866024828
1.1858510269
1.1851245019
1.1844464543
1.1838397664
1.1833254408
1.1829216149
1.1826429720
1.1824998446
1.1861530074
1.2259621143
1.2283431899
1.2270424843
1.2245409249
1.2209638436
1.2165065819
1.2114266159
1.2060204710
1.2005921523
1.1954182577
1.1907182279
1.1866386448
1.1832508716
1.1805593382
1.1785172068
1.1770437489
1.1760404760
1.1754040842
1.1750358347
1.1748480395
1.1747670764
1.1747346762
1.1747083581
1.1746598256
1.1745732721
1.1744439509
1.1742753984
1.1740772389
1.1738636262
1.1736506394
1.1734544962
1.1732905265
1.1731712841
1.1731055468
1.1738775199
1.1933701074
1.1916561248
1.1915732780
1.1914086530
1.1911613576
1.1908308324
1.1904176410
1.1899241389
1.1893554747
1.1887201914
1.1880304280
1.1873019893
1.1865539052
1.1858076815
1.1850863107
1.1844131366
1.1838108486
1.1833002762
1.1828994110
1.1826228206
1.1824807566
1.1861114942
1.2258487747
1.2282442267
1.2269506195
1.2244642582
1.2209107675
1.2164852694
1.2114441743
1.2060819858
1.2007000488
1.1955722484
1.1909157274
1.1868754929
1.1835221673
1.1808601974
1.1788433121
1.1773916597
1.1764077360
1.1757891709
1.1754380141
1.1752671808
1.1752034504
1.1751887618
1.1751806724
1.1751507767
1.1750830390
1.1749723937
1.1748219930
1.1746410386
1.1744432452
1.1742442609
1.1740599025
1.1739051460
1.1737922594
1.1737298169
1.1744628452
1.1931441941
1.1914845588
1.1914022268
1.1912386736
1.1909931520
1.1906652805
1.1902557964
1.1897671905
1.1892046743
1.1885767603
1.1878954586
1.1871763504
1.1864381640
1.1857020499
1.1849906174
1.1843268258
1.1837329987
1.1832296383
1.1828344599
1.1825618113
1.1824217904
1.1860081333
1.2256122703
1.2280353287
1.2267561555
1.2243005796
1.2207946715
1.2164329643
1.2114696340
1.2061951806
1.2009057883
1.1958700099
1.1913004565
1.1873390214
1.1840548498
1.1814524000
1.1794864938
1.1780789863
1.1771342998
1.1765518999
1.1762353956
1.1760989050
1.1760700179
1.1760911052
1.1761198204
1.1761275586
1.1760978414
1.1760249718
1.1759113333
1.1757652712
1.1755996033
1.1754290916
1.1752687223
1.1751327355
1.1750328031
1.1749770737
1.1756338989
1.1927968603
1.1912162886
1.1911348983
1.1909732743
1.1907308581
1.1904074970
1.1900041455
1.1895234545
1.1889706915
1.1883542935
1.1876860575
1.1869812216
1.1862580639
1.1855372124
1.1848407189
1.1841909850
1.1836098051
1.1831172077
1.1827305075
1.1824637321
1.1823267549
1.1858472571
1.2252351287
1.2276969561
1.2264397507
1.2240308519
1.2205967768
1.2163309396
1.2114839997
1.2063404525
1.2011888896
1.1962900576
1.1918499625
1.1880059840
1.1848251441
1.1823119431
1.1804228145
1.1790821177
1.1781971003
1.1776699236
1.1774064925
1.1773227022
1.1773473459
1.1774234402
1.1775087846
1.1775744770
1.1776033688
1.1775887998
1.1775319709
1.1774398997
1.1773240049
1.1771976571
1.1770745325
1.1769677061
1.1768879029
1.1768425961
1.1773896776
1.1923284577
1.1908489435
1.1907691375
1.1906107127
1.1903733116
1.1900570184
1.1896630011
1.1891940469
1.1886554292
1.1880554287
1.1874055211
1.1867204672
1.1860179433
1.1853178924
1.1846416439
1.1840108817
1.1834467197
1.1829685761
1.1825932470
1.1823343433
1.1822014437
1.1856354211
1.2246914077
1.2272002938
1.2259728931
1.2236270290
1.2202894477
1.2161516872
1.2114594525
1.2064892113
1.2015196342
1.1968013926
1.1925320354
1.1888432101
1.1857992810
1.1834048583
1.1816184874
1.1803677760
1.1795636310
1.1791117096
1.1789209017
1.1789094209
1.1790076379
1.1791594187
1.1793227541
1.1794683409
1.1795781231
1.1796441240
1.1796659152
1.1796486707
1.1796018523
1.1795368723
1.1794655529
1.1793993144
1.1793475329
1.1793167195
1.1797261383
1.1917404312
1.1903803728
1.1903030544
1.1901495977
1.1899198196
1.1896139985
1.1892334539
1.1887810284
1.1882618986
1.1876840668
1.1870585491
1.1863994802
1.1857237789
1.1850505475
1.1844002402
1.1837936777
1.1832511551
1.1827913536
1.1824304378
1.1821815053
1.1820537683
1.1853815333
1.2239473137
1.2265081132
1.2253187500
1.2230528806
1.2198369964
1.2158597275
1.2113602065
1.2066048352
1.2018601649
1.1973647791
1.1933061687
1.1898092321
1.1869352553
1.1846890533
1.1830317437
1.1818948512
1.1811936913
1.1808381415
1.1807407080
1.1808224278
1.1810156037
1.1812651505
1.1815292972
1.1817782394
1.1819927746
1.1821632452
1.1822871218
1.1823671794
1.1824103130
1.1824253490
1.1824216476
1.1824084222
1.1823932461
1.1823813437
1.1826327716
1.1910364195
1.1898098134
1.1897361760
1.1895900121
1.1893712438
1.1890802445
1.1887183591
1.1882883412
1.1877951115
1.1872462257
1.1866520720
1.1860259930
1.1853839919
1.1847441809
1.1841260002
1.1835492758
1.1830333583
1.1825960707
1.1822528329
1.1820161262
1.1818947167
1.1850978029
1.2229624160
1.2255762811
1.2244336448
1.2222654069
1.2191970248
1.2154128995
1.2111437936
1.2066440061
1.2021659279
1.1979343312
1.1941253067
1.1908561786
1.1881848302
1.1861163777
1.1846149046
1.1836164222
1.1830412988
1.1828042671
1.1828220165
1.1830188730
1.1833294115
1.1836997962
1.1840885531
1.1844652933
1.1848094431
1.1851093066
1.1853597770
1.1855606570
1.1857156333
1.1858302779
1.1859108337
1.1859637095
1.1859941816
1.1860058345
1.1860884471
1.1902218258
1.1891375702
1.1890691039
1.1889331279
1.1887295570
1.1884587023
1.1881217438
1.1877211379
1.1872613331
1.1867492262
1.1861943783
1.1856091598
1.1850084977
1.1844093735
1.1838300875
1.1832893537
1.1828054600
1.1823952501
1.1820732750
1.1818512790
1.1817374822
1.1847988496
1.2216906289
1.2243550367
1.2232683382
1.2212161252
1.2183217434
1.2147637597
1.2107626103
1.2065584732
1.2023877159
1.1984598723
1.1949385186
1.1919327347
1.1894967295
1.1876359789
1.1863178276
1.1854832174
1.1850580916
1.1849625727
1.1851180322
1.1854525134
1.1859031944
1.1864177022
1.1869549443
1.1874838969
1.1879824283
1.1884364815
1.1888379268
1.1891830410
1.1894716705
1.1897054647
1.1898868883
1.1900189379
1.1901040887
1.1901439254
1.1900579592
1.1893042155
1.1883655746
1.1883040486
1.1881816950
1.1879982683
1.1877538068
1.1874490761
1.1870859685
1.1866681930
1.1862017349
1.1856951035
1.1851595042
1.1846086288
1.1840581969
1.1835252565
1.1830273032
1.1825814465
1.1822034181
1.1819067502
1.1817022900
1.1815975722
1.1845018104
1.2200819562
1.2227910089
1.2217700226
1.2198530149
1.2171598647
1.2138614565
1.2101658268
1.2062970572
1.2024738278
1.1988892828
1.1956935396
1.1929868517
1.1908194756
1.1891972181
1.1880908449
1.1874465218
1.1871961512
1.1872656733
1.1875815700
1.1880759962
1.1886890629
1.1893700979
1.1900785154
1.1907826608
1.1914587205
1.1920900240
1.1926650463
1.1931760586
1.1936185040
1.1939895032
1.1942871369
1.1945104291
1.1946585884
1.1947308679
1.1944885709
1.1882939416
1.1874982624
1.1874456861
1.1873408586
1.1871831880
1.1869721862
1.1867079058
1.1863913613
1.1860252133
1.1856142515
1.1851656892
1.1846893676
1.1841975875
1.1837046869
1.1832263619
1.1827787916
1.1823777863
1.1820378060
1.1817711630
1.1815875770
1.1814936825
1.1842271941
1.2180849493
1.2208299272
1.2198849872
1.2181230909
1.2156590674
1.2126540973
1.2093016937
1.2058079433
1.2023724042
1.1991709007
1.1963392354
1.1939682601
1.1921039231
1.1907521930
1.1898872454
1.1894605939
1.1894103330
1.1896685345
1.1901671490
1.1908428053
1.1916388815
1.1925066789
1.1934063015
1.1943055444
1.1951788788
1.1960068740
1.1967743591
1.1974692537
1.1980821735
1.1986052420
1.1990316810
1.1993560996
1.1995740728
1.1996822615
1.1993079124
1.1872034856
1.1865422234
1.1865007803
1.1864177304
1.1862919284
1.1861220776
1.1859071879
1.1856470519
1.1853429473
1.1849981654
1.1846183704
1.1842118406
1.1837893394
1.1833637186
1.1829492385
1.1825606715
1.1822123929
1.1819173878
1.1816864614
1.1815278548
1.1814469551
1.1839981086
1.2156485319
1.2184186071
1.2175606266
1.2159744425
1.2137680824
1.2110909052
1.2081198050
1.2050410942
1.2020340237
1.1992562933
1.1968285213
1.1948314943
1.1933063462
1.1922588477
1.1916663755
1.1914857309
1.1916612818
1.1921314301
1.1928338852
1.1937100862
1.1947070251
1.1957782956
1.1968849502
1.1979944130
1.1990795307
1.2001181083
1.2010912458
1.2019823566
1.2027770121
1.2034620854
1.2040256713
1.2044577128
1.2047499426
1.2048962853
1.2044249917
1.1860474522
1.1855065395
1.1854784969
1.1854216560
1.1853341063
1.1852134528
1.1850573242
1.1848639390
1.1846328519
1.1843655509
1.1840659034
1.1837404357
1.1833982477
1.1830506226
1.1827103261
1.1823906421
1.1821043607
1.1818627227
1.1816746128
1.1815462427
1.1814811716
1.1838404418
1.2127245419
1.2155075930
1.2147481169
1.2133589370
1.2114393947
1.2091248999
1.2065737365
1.2039508441
1.2014142574
1.1991027276
1.1971207137
1.1955380975
1.1943904757
1.1936828350
1.1933953286
1.1934898059
1.1939168411
1.1946212628
1.1955467603
1.1966399039
1.1978516677
1.1991383165
1.2004621993
1.2017906745
1.2030952062
1.2043510102
1.2055355809
1.2066279062
1.2076085586
1.2084591800
1.2091627416
1.2097045135
1.2100723857
1.2102575509
1.2097328224
1.1848425331
1.1844031375
1.1843907415
1.1843645262
1.1843216181
1.1842582503
1.1841703488
1.1840542237
1.1839073829
1.1837292248
1.1835215899
1.1832890910
1.1830390653
1.1827811846
1.1825266934
1.1822873361
1.1820741590
1.1818963174
1.1817601780
1.1816690623
1.1816237103
1.1837837835
1.2092706540
1.2120541436
1.2114055012
1.2102353917
1.2086324535
1.2067160610
1.2046240625
1.2024987256
1.2004762604
1.1986754475
1.1971834427
1.1960581607
1.1953286823
1.1949983737
1.1950495256
1.1954486216
1.1961522534
1.1971116812
1.1982767500
1.1995994558
1.2010351654
1.2025432637
1.2040878516
1.2056366676
1.2071602120
1.2086314936
1.2100247555
1.2113149027
1.2124778371
1.2134902911
1.2143304117
1.2149790631
1.2154205157
1.2156433993
1.2151136639
1.1836067082
1.1832463425
1.1832517023
1.1832602893
1.1832681051
1.1832697789
1.1832592558
1.1832306469
1.1831791322
1.1831017722
1.1829981920
1.1828709686
1.1827256275
1.1825702416
1.1824145788
1.1822688549
1.1821422481
1.1820414255
1.1819694086
1.1819252886
1.1819052825
1.1838611079
1.2052516684
1.2080234951
1.2074993003
1.2065716820
1.2053162445
1.2038342238
1.2022413916
1.2006565313
1.1991937385
1.1979503852
1.1969950152
1.1963722947
1.1961035710
1.1961895094
1.1966136916
1.1973466690
1.1983507579
1.1995836083
1.2010013676
1.2025617611
1.2042249821
1.2059540893
1.2077155123
1.2094779687
1.2112116057
1.2128878182
1.2144782000
1.2159541676
1.2172875567
1.2184507928
1.2194177810
1.2201655001
1.2206750360
1.2209327725
1.2204472631
1.1823591554
1.1820530687
1.1820781215
1.1821253086
1.1821893809
1.1822631800
1.1823384480
1.1824068648
1.1824610591
1.1824955644
1.1825076651
1.1824978572
1.1824699029
1.1824304154
1.1823878826
1.1823511670
1.1823275782
1.1823208891
1.1823296684
1.1823467058
1.1823607236
1.1841095240
1.2006409645
1.2033902496
1.2030066363
1.2023477631
1.2014730268
1.2004631591
1.1994104876
1.1984102392
1.1975543990
1.1969169408
1.1965464255
1.1964728762
1.1967085199
1.1972500599
1.1980813386
1.1991762687
1.2005025114
1.2020240369
1.2037034668
1.2055045905
1.2073929233
1.2093358191
1.2113027676
1.2132642293
1.2151907831
1.2170530181
1.2188206858
1.2204625509
1.2219472034
1.2232435912
1.2243221771
1.2251567763
1.2257258856
1.2260140722
1.2256187057
1.1811198371
1.1808426354
1.1808891093
1.1809781703
1.1811032317
1.1812552225
1.1814235293
1.1815972429
1.1817662919
1.1819225685
1.1820609706
1.1821799633
1.1822817184
1.1823717118
1.1824575949
1.1825473668
1.1826467997
1.1827565779
1.1828695306
1.1829690866
1.1830313025
1.1845725577
1.1954207910
1.1981386423
1.1979170434
1.1975590919
1.1971027994
1.1966055451
1.1961352443
1.1957645766
1.1955637187
1.1955806651
1.1958429478
1.1963646155
1.1971473765
1.1981826019
1.1994532390
1.2009357196
1.2026025753
1.2044239981
1.2063692975
1.2084087385
1.2105137474
1.2126566944
1.2148109443
1.2169496389
1.2190447430
1.2210669946
1.2229852952
1.2247667369
1.2263776588
1.2277844861
1.2289551572
1.2298611605
1.2304790899
1.2307921850
1.2305260075
1.1799088998
1.1796362006
1.1797054699
1.1798389147
1.1800285720
1.1802634022
1.1805303654
1.1808158927
1.1811071496
1.1813933526
1.1816670501
1.1819248165
1.1821675367
1.1824000747
1.1826300366
1.1828655679
1.1831119266
1.1833672121
1.1836174829
1.1838326745
1.1839673659
1.1853027308
1.1895780295
1.1922583397
1.1922315797
1.1922188432
1.1922277117
1.1922885262
1.1924445790
1.1927485037
1.1932495275
1.1939667567
1.1949064430
1.1960658369
1.1974348669
1.1989982128
1.2007366732
1.2026282419
1.2046497328
1.2067774078
1.2089874916
1.2112572440
1.2135646925
1.2158880835
1.2182055835
1.2204939951
1.2227277696
1.2248788626
1.2269163829
1.2288068282
1.2305153114
1.2320067506
1.2332474966
1.2342075355
1.2348622618
1.2351940864
1.2350867616
1.1787466894
1.1784566412
1.1785496259
1.1787290225
1.1789855042
1.1793060756
1.1796752790
1.1800768954
1.1804953366
1.1809171703
1.1813326854
1.1817367740
1.1821294487
1.1825157287
1.1829044196
1.1833056460
1.1837264555
1.1841645139
1.1845994867
1.1849832216
1.1852344637
1.1863676304
1.1830959054
1.1857361937
1.1859615252
1.1863621341
1.1868993292
1.1875718037
1.1884005450
1.1894221531
1.1906668565
1.1921231321
1.1937769637
1.1956087753
1.1975958881
1.1997149891
1.2019434098
1.2042596157
1.2066439800
1.2090785836
1.2115467847
1.2140333739
1.2165238224
1.2190031794
1.2214554554
1.2238621986
1.2262013598
1.2284472443
1.2305702379
1.2325372646
1.2343132234
1.2358624515
1.2371505846
1.2381468790
1.2388261338
1.2391703936
1.2392409272
1.1776535578
1.1773280959
1.1774452014
1.1776710617
1.1779950452
1.1784022768
1.1788749569
1.1793942891
1.1799419887
1.1805020227
1.1810625070
1.1816168433
1.1821646113
1.1827119190
1.1832705190
1.1838554688
1.1844800493
1.1851470369
1.1858342695
1.1864733116
1.1869261930
1.1878626866
1.1759349136
1.1785372125
1.1791250730
1.1800518031
1.1812072405
1.1825561062
1.1841065628
1.1858832127
1.1879013045
1.1901214791
1.1925123272
1.1950382348
1.1976634781
1.2003555710
1.2030869545
1.2058353025
1.2085836534
1.2113195253
1.2140335333
1.2167185588
1.2193683225
1.2219757396
1.2245316815
1.2270234895
1.2294337472
1.2317399861
1.2339148406
1.2359266181
1.2377408333
1.2393220611
1.2406359435
1.2416516205
1.2423438316
1.2426946085
1.2429512370
1.1766497966
1.1762755388
1.1764166162
1.1766883232
1.1770788231
1.1775714846
1.1781462912
1.1787819770
1.1794576228
1.1801545993
1.1808588323
1.1815622578
1.1822642686
1.1829729038
1.1837049011
1.1844844377
1.1853385930
1.1862870522
1.1873205246
1.1883596148
1.1891884524
1.1899353451
1.1679895928
1.1705619917
1.1717411674
1.1733880070
1.1752911892
1.1773876227
1.1797053547
1.1822736063
1.1850712609
1.1880576545
1.1911874794
1.1944104552
1.1976775149
1.2009457346
1.2041810650
1.2073589211
1.2104639010
1.2134884221
1.2164303763
1.2192911693
1.2220735946
1.2247793214
1.2274071347
1.2299511099
1.2323992479
1.2347333009
1.2369288388
1.2389561914
1.2407821953
1.2423723392
1.2436927727
1.2447130180
1.2454080951
1.2457602750
1.2462013441
1.1757556459
1.1753244006
1.1754887330
1.1758045306
1.1762588778
1.1768335411
1.1775064353
1.1782539323
1.1790524930
1.1798807696
1.1807222325
1.1815669674
1.1824138312
1.1832729418
1.1841675714
1.1851357708
1.1862295113
1.1875071743
1.1890086219
1.1906893033
1.1922710042
1.1928366093
1.1589975226
1.1615569064
1.1638242471
1.1665254300
1.1693583700
1.1722939199
1.1754072755
1.1787664411
1.1823263960
1.1860552174
1.1899000115
1.1937986360
1.1976891386
1.2015172383
1.2052409545
1.2088319682
1.2122752650
1.2155674402
1.2187134800
1.2217235444
1.2246099979
1.2273840400
1.2300529920
1.2326184531
1.2350745502
1.2374076371
1.2395969184
1.2416152089
1.2434311665
1.2450114247
1.2463230811
1.2473362342
1.2480263707
1.2483760919
1.2489916334
1.1749906968
1.1744995755
1.1746858976
1.1750429517
1.1755568852
1.1762080299
1.1769723806
1.1778240242
1.1787367259
1.1796860920
1.1806524707
1.1816229887
1.1825944147
1.1835772761
1.1846005795
1.1857189591
1.1870215787
1.1886394082
1.1907376827
1.1934506172
1.1966387389
1.1970323033
1.1483154217
1.1508928707
1.1553570831
1.1596768025
1.1636800636
1.1675488337
1.1714881205
1.1755894261
1.1798538360
1.1842639879
1.1887660978
1.1932884344
1.1977566422
1.2021043931
1.2062804811
1.2102515089
1.2140016278
1.2175308063
1.2208506780
1.2239800829
1.2269411160
1.2297547603
1.2324372738
1.2349979813
1.2374374693
1.2397469738
1.2419094312
1.2439004236
1.2456903398
1.2472471884
1.2485390773
1.2495368466
1.2502164935
1.2505610215
1.2513343273
1.1743735893
1.1738247699
1.1740313058
1.1744258137
1.1749936517
1.1757138855
1.1765607294
1.1775060240
1.1785206616
1.1795766419
1.1806500249
1.1817228665
1.1827863698
1.1838463211
1.1849308069
1.1861051378
1.1874990083
1.1893529749
1.1920914510
1.1964051861
1.2032023894
1.2034335213
1.1344766068
1.1371312777
1.1463676180
1.1532223599
1.1586804311
1.1635360067
1.1682450000
1.1729841103
1.1778447811
1.1828325903
1.1878963200
1.1929568042
1.1979276653
1.2027297804
1.2073014631
1.2116027983
1.2156158221
1.2193427943
1.2228013178
1.2260183768
1.2290255331
1.2318533019
1.2345267076
1.2370626165
1.2394678427
1.2417383901
1.2438606015
1.2458125968
1.2475665822
1.2490918455
1.2503574961
1.2513350169
1.2520009578
1.2523387385
1.2532480264
1.1739215166
1.1733217309
1.1735462459
1.1739735816
1.1745884567
1.1753688411
1.1762873101
1.1773134874
1.1784151735
1.1795600607
1.1807183594
1.1818639533
1.1829766870
1.1840472963
1.1850853783
1.1861394550
1.1873457479
1.1890461964
1.1920868380
1.1985798166
1.2137901309
1.2138673655
1.1142111861
1.1170549727
1.1371148118
1.1478877086
1.1550114271
1.1607258174
1.1659710145
1.1711586713
1.1764500757
1.1818696389
1.1873660414
1.1928509150
1.1982247600
1.2033946253
1.2082872080
1.2128549485
1.2170765821
1.2209556346
1.2245146504
1.2277879400
1.2308156013
1.2336369771
1.2362849562
1.2387833219
1.2411443251
1.2433680586
1.2454439008
1.2473522002
1.2490666243
1.2505575591
1.2517948733
1.2527506537
1.2534019543
1.2537325763
1.2547524247
1.1736490481
1.1730088558
1.1732487084
1.1737035729
1.1743576825
1.1751880979
1.1761659335
1.1772586949
1.1784309842
1.1796456300
1.1808655173
1.1820529634
1.1831689606
1.1841725839
1.1850168247
1.1856420546
1.1859620166
1.1858208751
1.1848632103
1.1821107978
1.1744961806
1.1400514375
1.0929692652
1.1157506363
1.1529981684
1.1438786263
1.1461213885
1.1503804372
1.1551020323
1.1599882702
1.1650342150
1.1702882101
1.1757673088
1.1814358520
1.1872125227
1.1929888115
1.1986483029
1.2040829759
1.2092074501
1.2139660833
1.2183337331
1.2223142877
1.2259342145
1.2292338046
1.2322603815
1.2350605460
1.2376737801
1.2401293171
1.2424438086
1.2446205407
1.2466512170
1.2485177881
1.2501949582
1.2516538037
1.2528647769
1.2538004352
1.2544382430
1.2547623213
1.2558647961
1.1735678068
1.1729007548
1.1731529425
1.1736294975
1.1743143302
1.1751838110
1.1762078548
1.1773521246
1.1785782780
1.1798444438
1.1811061490
1.1823137818
1.1834087486
1.1843178312
1.1849393856
1.1851200234
1.1846125748
1.1829889735
1.1794672028
1.1725682456
1.1594782859
1.1318904900
1.0954126178
1.1181510242
1.1389930104
1.1423811435
1.1462430967
1.1505777507
1.1551334438
1.1598844234
1.1648762985
1.1701492592
1.1757033412
1.1814884330
1.1874102064
1.1933472462
1.1991702811
1.2047590290
1.2100180031
1.2148847373
1.2193306388
1.2233596548
1.2270010944
1.2302997360
1.2333081571
1.2360782811
1.2386541323
1.2410687431
1.2433416877
1.2454782554
1.2474714811
1.2493041815
1.2509515272
1.2523849052
1.2535750786
1.2544948950
1.2551221212
1.2554411389
1.2565966316
1.1736859540
1.1730076885
1.1732688843
1.1737608500
1.1744673427
1.1753642991
1.1764207855
1.1776010907
1.1788645712
1.1801655709
1.1814536386
1.1826695184
1.1837393587
1.1845665848
1.1850145323
1.1848804874
1.1838578669
1.1814754470
1.1770211122
1.1694879741
1.1576786515
1.1399688867
1.1221456982
1.1282588915
1.1383324331
1.1431327241
1.1472720789
1.1515010615
1.1558998373
1.1605180263
1.1654153695
1.1706307361
1.1761597774
1.1819475516
1.1878935544
1.1938690254
1.1997367717
1.2053686757
1.2106629044
1.2155528793
1.2200081257
1.2240328876
1.2276584759
1.2309324061
1.2339103354
1.2366470522
1.2391888726
1.2415705634
1.2438128915
1.2459217443
1.2478903958
1.2497016837
1.2513306590
1.2527486337
1.2539263440
1.2548366959
1.2554576237
1.2557737274
1.2569515498
1.1740070991
1.1733344618
1.1736010295
1.1741017153
1.1748202949
1.1757325553
1.1768071197
1.1780075027
1.1792916568
1.1806115094
1.1819127633
1.1831298615
1.1841794607
1.1849517717
1.1852933711
1.1849850568
1.1837177044
1.1810658742
1.1764888610
1.1694205377
1.1595550532
1.1472758690
1.1365702009
1.1366281889
1.1410626454
1.1450014640
1.1488826036
1.1529217604
1.1571644471
1.1616510509
1.1664333020
1.1715456238
1.1769821114
1.1826872505
1.1885593251
1.1944676368
1.2002727898
1.2058445699
1.2110799152
1.2159120685
1.2203110739
1.2242823089
1.2278584215
1.2310880013
1.2340274261
1.2367318352
1.2392473713
1.2416083404
1.2438348542
1.2459319581
1.2478920750
1.2496972450
1.2513218171
1.2527366015
1.2539120009
1.2548206807
1.2554405473
1.2557563206
1.2569252153
1.1745306798
1.1738808385
1.1741488543
1.1746511780
1.1753717891
1.1762865851
1.1773641887
1.1785679767
1.1798554815
1.1811777481
1.1824789338
1.1836904335
1.1847245580
1.1854661033
1.1857564195
1.1853756975
1.1840302237
1.1813489140
1.1769243785
1.1704520209
1.1620197759
1.1525238790
1.1446727076
1.1425497688
1.1442251529
1.1471527389
1.1506573825
1.1545119997
1.1586327041
1.1630142666
1.1676890597
1.1726838633
1.1779912021
1.1835569429
1.1892817997
1.1950381878
1.2006904922
1.2061127397
1.2112063534
1.2159088948
1.2201937545
1.2240685244
1.2275667890
1.2307366790
1.2336331232
1.2363091448
1.2388083709
1.2411625297
1.2433893114
1.2454915845
1.2474599233
1.2492748695
1.2509095803
1.2523339594
1.2535177459
1.2544330993
1.2550576014
1.2553758872
1.2565047845
1.1752520308
1.1746416445
1.1749069320
1.1754034668
1.1761156176
1.1770195819
1.1780844356
1.1792740561
1.1805464986
1.1818535326
1.1831397474
1.1843363659
1.1853553365
1.1860811694
1.1863556930
1.1859625504
1.1846196854
1.1819854307
1.1777143855
1.1716099229
1.1638977242
1.1555700697
1.1487495990
1.1459154388
1.1464878429
1.1488745230
1.1521734000
1.1559523578
1.1600308014
1.1643624542
1.1689616524
1.1738480597
1.1790132092
1.1844058665
1.1899323639
1.1954729583
1.2009015542
1.2061026580
1.2109875184
1.2155021642
1.2196260479
1.2233699923