<VTKFile type="UnstructuredGrid" version="0.1">
	<UnstructuredGrid>
		<Piece NumberOfPoints="13548" NumberOfCells="3387">
			<CellData>
				<DataArray type="Int32" Name="ghost" NumberOfComponents="1" Format="ascii">
1
1
1
1
1
1
1
1
1
1
1
1
1
1
1
1
1
1
1
1
1
1
1
1
1
1
1
1
1
1
1
1
1
1
1
1
1
1
1
1
1
1
1
1
1
1
1
1
1
1
1
1
1
1
1
1
1
1
0
0
0
0
0
0
0
0
0
0
0
0
0
0
0
0
0
0
0
0
1
1
0
0
0
0
0
0
0
0
0
0
0
0
0
0
0
0
0
0
0
0
0
0
0
0
0
0
0
0
0
0
0
0
0
1
1
0
0
0
0
0
0
0
0
0
0
0
0
0
0
0
0
0
0
0
0
1
1
0
0
0
0
0
0
0
0
0
0
0
0
0
0
0
0
0
0
0
0
0
0
0
0
0
0
0
0
0
0
0
0
0
1
1
0
0
0
0
0
0
0
0
0
0
0
0
0
0
0
0
0
0
0
0
1
1
0
0
0
0
0
0
0
0
0
0
0
0
0
0
0
0
0
0
0
0
0
0
0
0
0
0
0
0
0
0
0
0
0
1
1
0
0
0
0
0
0
0
0
0
0
0
0
0
0
0
0
0
0
0
0
1
1
0
0
0
0
0
0
0
0
0
0
0
0
0
0
0
0
0
0
0
0
0
0
0
0
0
0
0
0
0
0
0
0
0
1
1
0
0
0
0
0
0
0
0
0
0
0
0
0
0
0
0
0
0
0
0
1
1
0
0
0
0
0
0
0
0
0
0
0
0
0
0
0
0
0
0
0
0
0
0
0
0
0
0
0
0
0
0
0
0
0
1
1
0
0
0
0
0
0
0
0
0
0
0
0
0
0
0
0
0
0
0
0
1
1
0
0
0
0
0
0
0
0
0
0
0
0
0
0
0
0
0
0
0
0
0
0
0
0
0
0
0
0
0
0
0
0
0
1
1
0
0
0
0
0
0
0
0
0
0
0
0
0
0
0
0
0
0
0
0
1
1
0
0
0
0
0
0
0
0
0
0
0
0
0
0
0
0
0
0
0
0
0
0
0
0
0
0
0
0
0
0
0
0
0
1
1
0
0
0
0
0
0
0
0
0
0
0
0
0
0
0
0
0
0
0
0
1
1
0
0
0
0
0
0
0
0
0
0
0
0
0
0
0
0
0
0
0
0
0
0
0
0
0
0
0
0
0
0
0
0
0
1
1
0
0
0
0
0
0
0
0
0
0
0
0
0
0
0
0
0
0
0
0
1
1
0
0
0
0
0
0
0
0
0
0
0
0
0
0
0
0
0
0
0
0
0
0
0
0
0
0
0
0
0
0
0
0
0
1
1
0
0
0
0
0
0
0
0
0
0
0
0
0
0
0
0
0
0
0
0
1
1
0
0
0
0
0
0
0
0
0
0
0
0
0
0
0
0
0
0
0
0
0
0
0
0
0
0
0
0
0
0
0
0
0
1
1
0
0
0
0
0
0
0
0
0
0
0
0
0
0
0
0
0
0
0
0
1
1
0
0
0
0
0
0
0
0
0
0
0
0
0
0
0
0
0
0
0
0
0
0
0
0
0
0
0
0
0
0
0
0
0
1
1
0
0
0
0
0
0
0
0
0
0
0
0
0
0
0
0
0
0
0
0
1
1
0
0
0
0
0
0
0
0
0
0
0
0
0
0
0
0
0
0
0
0
0
0
0
0
0
0
0
0
0
0
0
0
0
1
1
0
0
0
0
0
0
0
0
0
0
0
0
0
0
0
0
0
0
0
0
1
1
0
0
0
0
0
0
0
0
0
0
0
0
0
0
0
0
0
0
0
0
0
0
0
0
0
0
0
0
0
0
0
0
0
1
1
0
0
0
0
0
0
0
0
0
0
0
0
0
0
0
0
0
0
0
0
1
1
0
0
0
0
0
0
0
0
0
0
0
0
0
0
0
0
0
0
0
0
0
0
0
0
0
0
0
0
0
0
0
0
0
1
1
0
0
0
0
0
0
0
0
0
0
0
0
0
0
0
0
0
0
0
0
1
1
0
0
0
0
0
0
0
0
0
0
0
0
0
0
0
0
0
0
0
0
0
0
0
0
0
0
0
0
0
0
0
0
0
1
1
0
0
0
0
0
0
0
0
0
0
0
0
0
0
0
0
0
0
0
0
1
1
0
0
0
0
0
0
0
0
0
0
0
0
0
0
0
0
0
0
0
0
0
0
0
0
0
0
0
0
0
0
0
0
0
1
1
0
0
0
0
0
0
0
0
0
0
0
0
0
0
0
0
0
0
0
0
1
1
0
0
0
0
0
0
0
0
0
0
0
0
0
0
0
0
0
0
0
0
0
0
0
0
0
0
0
0
0
0
0
0
0
1
1
0
0
0
0
0
0
0
0
0
0
0
0
0
0
0
0
0
0
0
0
1
1
0
0
0
0
0
0
0
0
0
0
0
0
0
0
0
0
0
0
0
0
0
0
0
0
0
0
0
0
0
0
0
0
0
1
1
0
0
0
0
0
0
0
0
0
0
0
0
0
0
0
0
0
0
0
0
1
1
0
0
0
0
0
0
0
0
0
0
0
0
0
0
0
0
0
0
0
0
0
0
0
0
0
0
0
0
0
0
0
0
0
1
1
0
0
0
0
0
0
0
0
0
0
0
0
0
0
0
0
0
0
0
0
1
1
0
0
0
0
0
0
0
0
0
0
0
0
0
0
0
0
0
0
0
0
0
0
0
0
0
0
0
0
0
0
0
0
0
1
1
0
0
0
0
0
0
0
0
0
0
0
0
0
0
0
0
0
0
0
0
1
1
0
0
0
0
0
0
0
0
0
0
0
0
0
0
0
0
0
0
0
0
0
0
0
0
0
0
0
0
0
0
0
0
0
1
1
0
0
0
0
0
0
0
0
0
0
0
0
0
0
0
0
0
0
0
0
1
1
0
0
0
0
0
0
0
0
0
0
0
0
0
0
0
0
0
0
0
0
0
0
0
0
0
0
0
0
0
0
0
0
0
1
1
0
0
0
0
0
0
0
0
0
0
0
0
0
0
0
0
0
0
0
0
1
1
0
0
0
0
0
0
0
0
0
0
0
0
0
0
0
0
0
0
0
0
0
0
0
0
0
0
0
0
0
0
0
0
0
1
1
0
0
0
0
0
0
0
0
0
0
0
0
0
0
0
0
0
0
0
0
1
1
0
0
0
0
0
0
0
0
0
0
0
0
0
0
0
0
0
0
0
0
0
0
0
0
0
0
0
0
0
0
0
0
0
1
1
0
0
0
0
0
0
0
0
0
0
0
0
0
0
0
0
0
0
0
0
0
1
1
0
0
0
0
0
0
0
0
0
0
0
0
0
0
0
0
0
0
0
0
0
0
0
0
0
0
0
0
0
0
0
0
0
0
1
1
0
0
0
0
0
0
0
0
0
0
0
0
0
0
0
0
0
0
0
0
0
0
0
0
0
0
0
0
0
0
0
0
0
0
0
0
0
0
0
0
0
0
0
0
0
0
0
0
0
0
0
0
0
0
0
0
0
1
1
0
0
0
0
0
0
0
0
0
0
0
0
0
0
0
0
0
0
0
0
0
0
0
0
0
0
0
0
0
0
0
0
0
0
0
0
0
0
0
0
0
0
0
0
0
0
0
0
0
0
0
0
0
0
0
0
0
1
1
0
0
0
0
0
0
0
0
0
0
0
0
0
0
0
0
0
0
0
0
0
0
0
0
0
0
0
0
0
0
0
0
0
0
0
0
0
0
0
0
0
0
0
0
0
0
0
0
0
0
0
0
0
0
0
0
0
1
1
0
0
0
0
0
0
0
0
0
0
0
0
0
0
0
0
0
0
0
0
0
0
0
0
0
0
0
0
0
0
0
0
0
0
0
0
0
0
0
0
0
0
0
0
0
0
0
0
0
0
0
0
0
0
0
0
0
1
1
0
0
0
0
0
0
0
0
0
0
0
0
0
0
0
0
0
0
0
0
0
0
0
0
0
0
0
0
0
0
0
0
0
0
0
0
0
0
0
0
0
0
0
0
0
0
0
0
0
0
0
0
0
0
0
0
0
1
1
0
0
0
0
0
0
0
0
0
0
0
0
0
0
0
0
0
0
0
0
0
0
0
0
0
0
0
0
0
0
0
0
0
0
0
0
0
0
0
0
0
0
0
0
0
0
0
0
0
0
0
0
0
0
0
0
0
1
1
0
0
0
0
0
0
0
0
0
0
0
0
0
0
0
0
0
0
0
0
0
0
0
0
0
0
0
0
0
0
0
0
0
0
0
0
0
0
0
0
0
0
0
0
0
0
0
0
0
0
0
0
0
0
0
0
0
1
1
0
0
0
0
0
0
0
0
0
0
0
0
0
0
0
0
0
0
0
0
0
0
0
0
0
0
0
0
0
0
0
0
0
0
0
0
0
0
0
0
0
0
0
0
0
0
0
0
0
0
0
0
0
0
0
0
0
1
1
0
0
0
0
0
0
0
0
0
0
0
0
0
0
0
0
0
0
0
0
0
0
0
0
0
0
0
0
0
0
0
0
0
0
0
0
0
0
0
0
0
0
0
0
0
0
0
0
0
0
0
0
0
0
0
0
0
1
1
0
0
0
0
0
0
0
0
0
0
0
0
0
0
0
0
0
0
0
0
0
0
0
0
0
0
0
0
0
0
0
0
0
0
0
0
0
0
0
0
0
0
0
0
0
0
0
0
0
0
0
0
0
0
0
0
0
1
1
0
0
0
0
0
0
0
0
0
0
0
0
0
0
0
0
0
0
0
0
0
1
1
0
0
0
0
0
0
0
0
0
0
0
0
0
0
0
0
0
0
0
0
0
0
0
0
0
0
0
0
0
0
0
0
0
0
1
1
0
0
0
0
0
0
0
0
0
0
0
0
0
0
0
0
0
0
0
0
1
1
0
0
0
0
0
0
0
0
0
0
0
0
0
0
0
0
0
0
0
0
0
0
0
0
0
0
0
0
0
0
0
0
0
1
1
0
0
0
0
0
0
0
0
0
0
0
0
0
0
0
0
0
0
0
0
1
1
0
0
0
0
0
0
0
0
0
0
0
0
0
0
0
0
0
0
0
0
0
0
0
0
0
0
0
0
0
0
0
0
0
1
1
0
0
0
0
0
0
0
0
0
0
0
0
0
0
0
0
0
0
0
0
1
1
0
0
0
0
0
0
0
0
0
0
0
0
0
0
0
0
0
0
0
0
0
0
0
0
0
0
0
0
0
0
0
0
0
1
1
0
0
0
0
0
0
0
0
0
0
0
0
0
0
0
0
0
0
0
0
1
1
0
0
0
0
0
0
0
0
0
0
0
0
0
0
0
0
0
0
0
0
0
0
0
0
0
0
0
0
0
0
0
0
0
1
1
0
0
0
0
0
0
0
0
0
0
0
0
0
0
0
0
0
0
0
0
1
1
0
0
0
0
0
0
0
0
0
0
0
0
0
0
0
0
0
0
0
0
0
0
0
0
0
0
0
0
0
0
0
0
0
1
1
0
0
0
0
0
0
0
0
0
0
0
0
0
0
0
0
0
0
0
0
1
1
0
0
0
0
0
0
0
0
0
0
0
0
0
0
0
0
0
0
0
0
0
0
0
0
0
0
0
0
0
0
0
0
0
1
1
0
0
0
0
0
0
0
0
0
0
0
0
0
0
0
0
0
0
0
0
1
1
0
0
0
0
0
0
0
0
0
0
0
0
0
0
0
0
0
0
0
0
0
0
0
0
0
0
0
0
0
0
0
0
0
1
1
0
0
0
0
0
0
0
0
0
0
0
0
0
0
0
0
0
0
0
0
1
1
0
0
0
0
0
0
0
0
0
0
0
0
0
0
0
0
0
0
0
0
0
0
0
0
0
0
0
0
0
0
0
0
0
1
1
0
0
0
0
0
0
0
0
0
0
0
0
0
0
0
0
0
0
0
0
1
1
0
0
0
0
0
0
0
0
0
0
0
0
0
0
0
0
0
0
0
0
0
0
0
0
0
0
0
0
0
0
0
0
0
1
1
0
0
0
0
0
0
0
0
0
0
0
0
0
0
0
0
0
0
0
0
1
1
0
0
0
0
0
0
0
0
0
0
0
0
0
0
0
0
0
0
0
0
0
0
0
0
0
0
0
0
0
0
0
0
0
1
1
0
0
0
0
0
0
0
0
0
0
0
0
0
0
0
0
0
0
0
0
1
1
0
0
0
0
0
0
0
0
0
0
0
0
0
0
0
0
0
0
0
0
0
0
0
0
0
0
0
0
0
0
0
0
0
1
1
0
0
0
0
0
0
0
0
0
0
0
0
0
0
0
0
0
0
0
0
1
1
0
0
0
0
0
0
0
0
0
0
0
0
0
0
0
0
0
0
0
0
0
0
0
0
0
0
0
0
0
0
0
0
0
1
1
0
0
0
0
0
0
0
0
0
0
0
0
0
0
0
0
0
0
0
0
1
1
0
0
0
0
0
0
0
0
0
0
0
0
0
0
0
0
0
0
0
0
0
0
0
0
0
0
0
0
0
0
0
0
0
1
1
0
0
0
0
0
0
0
0
0
0
0
0
0
0
0
0
0
0
0
0
1
1
0
0
0
0
0
0
0
0
0
0
0
0
0
0
0
0
0
0
0
0
0
0
0
0
0
0
0
0
0
0
0
0
0
1
1
0
0
0
0
0
0
0
0
0
0
0
0
0
0
0
0
0
0
0
0
1
1
0
0
0
0
0
0
0
0
0
0
0
0
0
0
0
0
0
0
0
0
0
0
0
0
0
0
0
0
0
0
0
0
0
1
1
0
0
0
0
0
0
0
0
0
0
0
0
0
0
0
0
0
0
0
0
1
1
0
0
0
0
0
0
0
0
0
0
0
0
0
0
0
0
0
0
0
0
0
0
0
0
0
0
0
0
0
0
0
0
0
1
1
0
0
0
0
0
0
0
0
0
0
0
0
0
0
0
0
0
0
0
0
1
1
0
0
0
0
0
0
0
0
0
0
0
0
0
0
0
0
0
0
0
0
0
0
0
0
0
0
0
0
0
0
0
0
0
1
1
0
0
0
0
0
0
0
0
0
0
0
0
0
0
0
0
0
0
0
0
1
1
0
0
0
0
0
0
0
0
0
0
0
0
0
0
0
0
0
0
0
0
0
0
0
0
0
0
0
0
0
0
0
0
0
1
1
0
0
0
0
0
0
0
0
0
0
0
0
0
0
0
0
0
0
0
0
1
1
0
0
0
0
0
0
0
0
0
0
0
0
0
0
0
0
0
0
0
0
0
0
0
0
0
0
0
0
0
0
0
0
0
1
1
0
0
0
0
0
0
0
0
0
0
0
0
0
0
0
0
0
0
0
0
1
1
0
0
0
0
0
0
0
0
0
0
0
0
0
0
0
0
0
0
0
0
0
0
0
0
0
0
0
0
0
0
0
0
0
1
1
0
0
0
0
0
0
0
0
0
0
0
0
0
0
0
0
0
0
0
0
1
1
0
0
0
0
0
0
0
0
0
0
0
0
0
0
0
0
0
0
0
0
0
0
0
0
0
0
0
0
0
0
0
0
0
1
1
1
1
1
1
1
1
1
1
1
1
1
1
1
1
1
1
1
1
1
1
1
1
1
1
1
1
1
1
1
1
1
1
1
1
1
1
1
1
1
1
1
1
1
1
1
1
1
1
1
1
1
1
1
1
1
1
				</DataArray>
				<DataArray type="Float64" Name="h" NumberOfComponents="1" Format="ascii">
1.0977978291
1.0963689836
1.0965220519
1.0968221583
1.0972618444
1.0978302469
1.0985133295
1.0992943733
1.1001541673
1.1010714501
1.1020235304
1.1029867974
1.1039373467
1.1048516211
1.1057070982
1.1064828872
1.1071601403
1.1077226302
1.1081570679
1.1084531307
1.1086038134
1.1086038134
1.2533011387
1.2533857697
1.2535671800
1.2539329590
1.2544777822
1.2551935953
1.2560692197
1.2570895908
1.2582357214
1.2594839695
1.2608051424
1.2621642255
1.2635195539
1.2648224074
1.2660169458
1.2670404734
1.2678249205
1.2682990096
1.2683918707
1.2680385782
1.2671865173
1.2658030991
1.2638836216
1.2614571660
1.2585901660
1.2553856023
1.2519771943
1.2485201537
1.2451790026
1.2421147965
1.2394742994
1.2373814839
1.2359319789
1.2351903748
1.2351903748
1.0963689836
1.0950140203
1.0951882176
1.0955300976
1.0960310842
1.0966786673
1.0974566721
1.0983458066
1.0993239419
1.1003666352
1.1014478564
1.1025406185
1.1036177026
1.1046524116
1.1056193568
1.1064951152
1.1072587004
1.1078921602
1.1083808802
1.1087135989
1.1088827193
1.1086038134
1.2533857697
1.2535205494
1.2537077008
1.2540846928
1.2546453372
1.2553803743
1.2562771874
1.2573191817
1.2584859367
1.2597526669
1.2610895438
1.2624615988
1.2638280478
1.2651419787
1.2663502803
1.2673937622
1.2682083448
1.2687267383
1.2688813926
1.2686092925
1.2678575529
1.2665905566
1.2647976962
1.2624996955
1.2597532740
1.2566519882
1.2533221811
1.2499152211
1.2465960910
1.2435304414
1.2408727464
1.2387561554
1.2372851351
1.2365311339
1.2351903748
1.0966766734
1.0953299400
1.0955039550
1.0958454885
1.0963459662
1.0969928806
1.0977700609
1.0986582221
1.0996352471
1.1006767108
1.1017566070
1.1028479797
1.1039236464
1.1049569511
1.1059225481
1.1067970569
1.1075595307
1.1081920522
1.1086800355
1.1090122420
1.1091810916
1.1089124958
1.2534637713
1.2536087568
1.2537896813
1.2541545921
1.2546976280
1.2554099816
1.2562795817
1.2572904331
1.2584227367
1.2596523149
1.2609498170
1.2622806497
1.2636045399
1.2648751204
1.2660398088
1.2670399249
1.2678118912
1.2682889192
1.2684039834
1.2680946348
1.2673085958
1.2660108859
1.2641915196
1.2618717504
1.2591086469
1.2559958430
1.2526594250
1.2492501591
1.2459321259
1.2428698721
1.2402166952
1.2381046274
1.2366371954
1.2358851731
1.2345181166
1.0972921365
1.0959619117
1.0961355405
1.0964763370
1.0969757317
1.0976212233
1.0983966521
1.0992827497
1.1002574266
1.1012962980
1.1023734108
1.1034618756
1.1045345881
1.1055649778
1.1065277882
1.1073997246
1.1081599198
1.1087905247
1.1092770080
1.1096081747
1.1097764759
1.1095277746
1.2536060642
1.2537707430
1.2539397304
1.2542814742
1.2547906956
1.2554593966
1.2562764903
1.2572270751
1.2582925065
1.2594497714
1.2606705528
1.2619212055
1.2631624717
1.2643489731
1.2654290592
1.2663449469
1.2670339555
1.2674302198
1.2674677164
1.2670851130
1.2662313578
1.2648727744
1.2630006620
1.2606373777
1.2578407315
1.2547045527
1.2513544516
1.2479400287
1.2446236012
1.2415675523
1.2389228715
1.2368193996
1.2353588207
1.2346105869
1.2331950784
1.0982207359
1.0969149138
1.0970878706
1.0974273761
1.0979248722
1.0985678749
1.0993402505
1.1002227690
1.1011933977
1.1022278301
1.1033002113
1.1043837716
1.1054515415
1.1064770940
1.1074353174
1.1083030530
1.1090595550
1.1096870749
1.1101711593
1.1105006722
1.1106681068
1.1104478072
1.2537970795
1.2539893273
1.2541410187
1.2544492253
1.2549095270
1.2555151142
1.2562563360
1.2571198751
1.2580887467
1.2591415988
1.2602516286
1.2613866110
1.2625086881
1.2635737870
1.2645314741
1.2653251466
1.2658933367
1.2661714768
1.2660950061
1.2656042731
1.2646501067
1.2632008527
1.2612498132
1.2588210761
1.2559736303
1.2528016567
1.2494301069
1.2460068902
1.2426917453
1.2396438849
1.2370109183
1.2349194808
1.2334685636
1.2327256888
1.2312454035
1.0994696189
1.0981955260
1.0983674074
1.0987048335
1.0991992713
1.0998382746
1.1006057660
1.1014825927
1.1024468296
1.1034743092
1.1045393452
1.1056153633
1.1066756073
1.1076938693
1.1086452502
1.1095067830
1.1102578851
1.1108809364
1.1113615748
1.1116887301
1.1118549385
1.1116699809
1.2540144156
1.2542397804
1.2543693433
1.2546347039
1.2550325991
1.2555578064
1.2562025706
1.2569556356
1.2578021365
1.2587227998
1.2596927142
1.2606814233
1.2616527016
1.2625639350
1.2633660381
1.2640037391
1.2644169973
1.2645428517
1.2643186398
1.2636869634
1.2626012241
1.2610325602
1.2589770517
1.2564611962
1.2535456437
1.2503251223
1.2469237819
1.2434873651
1.2401722798
1.2371336418
1.2345146975
1.2324379517
1.2309989329
1.2302626852
1.2287095371
1.1010467365
1.0998109451
1.0999812031
1.1003154734
1.1008052716
1.1014382252
1.1021983626
1.1030666724
1.1040214155
1.1050386555
1.1060929758
1.1071581035
1.1082075994
1.1092155690
1.1101574046
1.1110103894
1.1117541392
1.1123711756
1.1128472249
1.1131712693
1.1133358735
1.1131912148
1.2542300694
1.2544911799
1.2545944726
1.2548090554
1.2551331334
1.2555634798
1.2560946891
1.2567180148
1.2574211111
1.2581871056
1.2589932394
1.2598110442
1.2606059898
1.2613369030
1.2619560138
1.2624093924
1.2626385307
1.2625823128
1.2621803774
1.2613781523
1.2601323273
1.2584176392
1.2562337560
1.2536102941
1.2506100698
1.2473285745
1.2438890446
1.2404346312
1.2371177360
1.2340885515
1.2314850957
1.2294249376
1.2279994789
1.2272708170
1.2256466230
1.1029599908
1.1017681102
1.1019360362
1.1022657555
1.1027488687
1.1033731330
1.1041227578
1.1049789687
1.1059203267
1.1069232555
1.1079627466
1.1090129675
1.1100479269
1.1110421563
1.1119714248
1.1128133182
1.1135476695
1.1141571294
1.1146274769
1.1149477015
1.1151103551
1.1150086680
1.2544124203
1.2547085634
1.2547822675
1.2549397585
1.2551810207
1.2555052222
1.2559097379
1.2563887320
1.2569327051
1.2575274029
1.2581523730
1.2587812284
1.2593810398
1.2599118918
1.2603271538
1.2605741218
1.2605958289
1.2603331786
1.2597284781
1.2587305411
1.2573000614
1.2554161829
1.2530829675
1.2503338456
1.2472342856
1.2438807458
1.2403954458
1.2369185616
1.2335978939
1.2305780023
1.2279909484
1.2259487030
1.2245380042
1.2238176294
1.2221346905
1.1052157621
1.1040722411
1.1042369657
1.1045604204
1.1050343444
1.1056467038
1.1063819968
1.1072218186
1.1081451855
1.1091290535
1.1101490007
1.1111798098
1.1121960941
1.1131729370
1.1140865684
1.1149149129
1.1156380068
1.1162385729
1.1167023563
1.1170182568
1.1171787299
1.1171202100
1.2545272763
1.2548541894
1.2548959398
1.2549918693
1.2551440288
1.2553543460
1.2556233546
1.2559484646
1.2563232568
1.2567362099
1.2571692291
1.2575980032
1.2579909556
1.2583091224
1.2585067154
1.2585320507
1.2583296393
1.2578425298
1.2570160331
1.2558028830
1.2541684660
1.2520971028
1.2495979991
1.2467090256
1.2434987175
1.2400646471
1.2365278918
1.2330252961
1.2296995448
1.2266889786
1.2241191286
1.2220958628
1.2207008610
1.2199893142
1.2182697715
1.1078173562
1.1067252750
1.1068857844
1.1072009772
1.1076628033
1.1082595465
1.1089761364
1.1097947135
1.1106949506
1.1116545535
1.1126499085
1.1136566221
1.1146500921
1.1156060865
1.1165013693
1.1173142083
1.1180247782
1.1186157503
1.1190726718
1.1193841780
1.1195424786
1.1195247905
1.2545393660
1.2548892644
1.2548977636
1.2549296930
1.2549894092
1.2550818961
1.2552111446
1.2553780484
1.2555794065
1.2558064267
1.2560433525
1.2562678526
1.2564493349
1.2565493821
1.2565226893
1.2563183301
1.2558821977
1.2551595853
1.2540991174
1.2526579451
1.2508067801
1.2485358051
1.2458600089
1.2428222021
1.2394942760
1.2359749641
1.2323840255
1.2288546284
1.2255239021
1.2225235119
1.2199720436
1.2179689241
1.2165905288
1.2158883060
1.2141622535
1.1107638628
1.1097247059
1.1098798776
1.1101845995
1.1106311256
1.1112081964
1.1119013554
1.1126935088
1.1135652340
1.1144952514
1.1154610181
1.1164392054
1.1174061934
1.1183385675
1.1192136760
1.1200100885
1.1207079823
1.1212897594
1.1217404956
1.1220482739
1.1222048103
1.1222232111
1.2544143301
1.2547762021
1.2547512945
1.2547189209
1.2546859057
1.2546604892
1.2546503054
1.2546598667
1.2546892032
1.2547321502
1.2547752094
1.2547978736
1.2547700587
1.2546534517
1.2544028405
1.2539677934
1.2532954912
1.2523335708
1.2510342632
1.2493595866
1.2472861250
1.2448104832
1.2419539108
1.2387644798
1.2353175578
1.2317129530
1.2280688588
1.2245144244
1.2211808568
1.2181928185
1.2156616956
1.2136803004
1.2123196028
1.2116272602
1.2099298674
1.1140486753
1.1130621357
1.1132107930
1.1135027314
1.1139306249
1.1144838413
1.1151487592
1.1159093153
1.1167472867
1.1176427167
1.1185744351
1.1195204472
1.1204583261
1.1213656009
1.1222202240
1.1230009656
1.1236877782
1.1242624535
1.1247091733
1.1250150178
1.1251708120
1.1252184415
1.2541193744
1.2544795524
1.2544223047
1.2543275723
1.2542046998
1.2540652496
1.2539205561
1.2537787417
1.2536429737
1.2535094948
1.2533669487
1.2531964464
1.2529678484
1.2526424975
1.2521749077
1.2515149099
1.2506109134
1.2494130254
1.2478773602
1.2459712025
1.2436774468
1.2409995215
1.2379652184
1.2346279831
1.2310665810
1.2273816618
1.2236895302
1.2201149779
1.2167829948
1.2138110653
1.2113032431
1.2093457321
1.2080041264
1.2073223434
1.2056904781
1.1176579936
1.1167218015
1.1168627840
1.1171396634
1.1175456698
1.1180709984
1.1187031200
1.1194273070
1.1202268727
1.1210835309
1.1219778199
1.1228893720
1.1237971752
1.1246798195
1.1255158473
1.1262840621
1.1269638577
1.1275359222
1.1279829224
1.1282902530
1.1284472236
1.1285155806
1.2536242750
1.2539672700
1.2538800629
1.2537272859
1.2535206998
1.2532750889
1.2530053658
1.2527231314
1.2524344446
1.2521376470
1.2518233934
1.2514741208
1.2510590297
1.2505386899
1.2498670121
1.2489939460
1.2478691292
1.2464452851
1.2446827062
1.2425542628
1.2400494799
1.2371788446
1.2339767381
1.2305018750
1.2268354889
1.2230803017
1.2193495276
1.2157630207
1.2124393536
1.2094887499
1.2070080966
1.2050771110
1.2037562070
1.2030857106
1.2015545385
1.1215700332
1.1206798293
1.1208120776
1.1210718265
1.1214530152
1.1219468898
1.1225422992
1.1232261885
1.1239837754
1.1247988230
1.1256539407
1.1265307017
1.1274097413
1.1282708244
1.1290930427
1.1298550060
1.1305351051
1.1311122563
1.1315667363
1.1318812452
1.1320425929
1.1321222246
1.2529028572
1.2532124355
1.2530990627
1.2528950444
1.2526142321
1.2522742989
1.2518934389
1.2514864058
1.2510618137
1.2506198033
1.2501527946
1.2496441840
1.2490618975
1.2483653309
1.2475075617
1.2464385767
1.2451093439
1.2434753789
1.2415014242
1.2391661841
1.2364659990
1.2334183885
1.2300634524
1.2264665412
1.2227121487
1.2189006458
1.2151432817
1.2115549899
1.2082478097
1.2053247905
1.2028758095
1.2009743709
1.1996759603
1.1990175408
1.1976177117
1.1257542319
1.1249035508
1.1250261961
1.1252671215
1.1256211395
1.1260807854
1.1266365891
1.1272775246
1.1279911022
1.1287635323
1.1295798774
1.1304239858
1.1312783899
1.1321241559
1.1329408829
1.1337067265
1.1343985411
1.1349926202
1.1354656628
1.1357961993
1.1359669792
1.1360483415
1.2519329775
1.2521934083
1.2520593003
1.2518136316
1.2514716632
1.2510533360
1.2505795393
1.2500677237
1.2495287062
1.2489640447
1.2483677643
1.2477236288
1.2469976609
1.2461477351
1.2451260060
1.2438825470
1.2423697357
1.2405462032
1.2383812386
1.2358596014
1.2329838442
1.2297791765
1.2262945317
1.2225966126
1.2187718015
1.2149205872
1.2111508592
1.2075724558
1.2042908825
1.2014021990
1.1989895899
1.1971207256
1.1958465323
1.1952009512
1.1939565750
1.1301705177
1.1293508905
1.1294633410
1.1296842962
1.1300096081
1.1304333425
1.1309480155
1.1315449892
1.1322144572
1.1329454808
1.1337259699
1.1345424015
1.1353794881
1.1362197666
1.1370433477
1.1378277023
1.1385475856
1.1391756670
1.1396835206
1.1400433797
1.1402314204
1.1403058940
1.2506969188
1.2508943119
1.2507469985
1.2504726456
1.2500866421
1.2496101412
1.2490659566
1.2484735213
1.2478450811
1.2471844042
1.2464865568
1.2457340735
1.2448912396
1.2439138666
1.2427533064
1.2413600455
1.2396876996
1.2376983691
1.2353657428
1.2326802582
1.2296555316
1.2263209039
1.2227289315
1.2189515790
1.2150765925
1.2112031922
1.2074359177
1.2038792914
1.2006324045
1.1977846090
1.1954127995
1.1935792662
1.1923308371
1.1916987932
1.1906264672
1.1347695780
1.1339707815
1.1340727991
1.1342733294
1.1345694232
1.1349569058
1.1354305693
1.1359845045
1.1366119622
1.1373052462
1.1380555083
1.1388522305
1.1396826393
1.1405310010
1.1413780656
1.1422005284
1.1429705863
1.1436562460
1.1442220620
1.1446309640
1.1448484679
1.1449094967
1.2491818498
1.2493054778
1.2491555077
1.2488698664
1.2484617268
1.2479518481
1.2473639438
1.2467189464
1.2460297629
1.2453020164
1.2445331716
1.2437020922
1.2427710469
1.2416940115
1.2404216715
1.2389047632
1.2370979996
1.2349671596
1.2324949633
1.2296763027
1.2265281460
1.2230880946
1.2194133972
1.2155789081
1.2116735598
1.2077950392
1.2040441608
1.2005202042
1.1973160674
1.1945147829
1.1921874397
1.1903914561
1.1891700166
1.1885520744
1.1876608601
1.1394934771
1.1387039703
1.1387957211
1.1389761579
1.1392436706
1.1395960459
1.1400306059
1.1405444708
1.1411342829
1.1417959464
1.1425242379
1.1433120418
1.1441495066
1.1450230347
1.1459143789
1.1467996851
1.1476484801
1.1484233015
1.1490796119
1.1495669527
1.1498335222
1.1498777689
1.2473778340
1.2474213045
1.2472842765
1.2470112481
1.2466090588
1.2460957538
1.2454949649
1.2448286887
1.2441098389
1.2433469234
1.2425383820
1.2416595659
1.2406693421
1.2395201227
1.2381610820
1.2365466570
1.2346350109
1.2323936592
1.2298088427
1.2268829550
1.2236382625
1.2201178089
1.2163835928
1.2125130986
1.2085956707
1.2047270901
1.2010044884
1.1975220415
1.1943668241
1.1916160609
1.1893355909
1.1875784831
1.1863847125
1.1857811905
1.1850731403
1.1442763629
1.1434838858
1.1435659593
1.1437274513
1.1439682020
1.1442881176
1.1446872480
1.1451659801
1.1457246150
1.1463629581
1.1470797586
1.1478717131
1.1487323886
1.1496509389
1.1506108564
1.1515885374
1.1525514875
1.1534567603
1.1542490328
1.1548593866
1.1552080875
1.1552365473
1.2452744319
1.2452366443
1.2451376399
1.2449115157
1.2445518637
1.2440711116
1.2434922410
1.2428385211
1.2421223381
1.2413561042
1.2405379947
1.2396371792
1.2386152506
1.2374229064
1.2360081702
1.2343249325
1.2323349920
1.2300101892
1.2273393860
1.2243315434
1.2210147724
1.2174372347
1.2136646511
1.2097766619
1.2058625407
1.2020160805
1.1983307338
1.1948958911
1.1917933115
1.1890950073
1.1868621747
1.1851440696
1.1839778708
1.1833887161
1.1828597305
1.1490462605
1.1482385741
1.1483119703
1.1484564513
1.1486733796
1.1489648808
1.1493338548
1.1497841041
1.1503197615
1.1509447421
1.1516620472
1.1524725742
1.1533738782
1.1543587192
1.1554135679
1.1565167620
1.1576358243
1.1587241522
1.1597157369
1.1605182827
1.1610083668
1.1610274051
1.2428531599
1.2427390622
1.2427224164
1.2425948870
1.2423262120
1.2419202085
1.2413983221
1.2407863081
1.2401032607
1.2393652042
1.2385692307
1.2376780147
1.2366524930
1.2354439223
1.2340003714
1.2322746726
1.2302308973
1.2278454138
1.2251122846
1.2220453367
1.2186782495
1.2150637463
1.2112707435
1.2073803151
1.2034814521
1.1996658247
1.1960234068
1.1926392489
1.1895903751
1.1869442391
1.1847580271
1.1830777225
1.1819381211
1.1813628515
1.1810037910
1.1537272956
1.1528930173
1.1529590924
1.1530891702
1.1532861608
1.1535544383
1.1538997832
1.1543294513
1.1548514549
1.1554738959
1.1562041840
1.1570477206
1.1580066189
1.1590782900
1.1602539721
1.1615168237
1.1628386466
1.1641746406
1.1654531389
1.1665578474
1.1673026605
1.1673250016
1.2400687159
1.2398896230
1.2400385438
1.2400872088
1.2399708436
1.2396870891
1.2392612199
1.2387249641
1.2381077244
1.2374292230
1.2366844210
1.2358315748
1.2348282932
1.2336257965
1.2321733626
1.2304253591
1.2283478961
1.2259217771
1.2231460388
1.2200393937
1.2166402591
1.2130052793
1.2092059256
1.2053243070
1.2014488472
1.1976691306
1.1940719687
1.1907385786
1.1877418882
1.1851454719
1.1830031457
1.1813581599
1.1802433329
1.1796810469
1.1794789254
1.1582416930
1.1573711408
1.1574315233
1.1575503132
1.1577319410
1.1579829803
1.1583120173
1.1587296689
1.1592477205
1.1598783580
1.1606333584
1.1615227247
1.1625535284
1.1637288507
1.1650468391
1.1664995736
1.1680704139
1.1697280780
1.1714114736
1.1729958759
1.1742261514
1.1742721454
1.2368136756
1.2365889453
1.2370745764
1.2374242264
1.2375421329
1.2374349735
1.2371458107
1.2367210050
1.2362028380
1.2356130982
1.2349407152
1.2341444165
1.2331804910
1.2320003083
1.2305542717
1.2287992832
1.2267041081
1.2242535874
1.2214512424
1.2183204195
1.2149035901
1.2112606832
1.2074651412
1.2035997088
1.1997520919
1.1960099256
1.1924572289
1.1891719525
1.1862235954
1.1836725369
1.1815698549
1.1799565903
1.1788639759
1.1783134045
1.1782524990
1.1625124292
1.1615984095
1.1616548983
1.1617658260
1.1619370633
1.1621772527
1.1624976019
1.1629118562
1.1634352904
1.1640838475
1.1648733406
1.1658180987
1.1669300771
1.1682185217
1.1696902627
1.1713508337
1.1732053171
1.1752566374
1.1774926395
1.1798421634
1.1820538101
1.1821538138
1.2328587744
1.2326184389
1.2338150466
1.2346690843
1.2351266565
1.2352531490
1.2351351721
1.2348458796
1.2344489128
1.2339691654
1.2333814188
1.2326522768
1.2317383235
1.2305907510
1.2291616426
1.2274104501
1.2253091745
1.2228463278
1.2200296583
1.2168863968
1.2134625038
1.2098205197
1.2060353364
1.2021899934
1.1983714182
1.1946654803
1.1911538302
1.1879117470
1.1850059745
1.1824943730
1.1804258937
1.1788398696
1.1777663220
1.1772259014
1.1772887221
1.1664659793
1.1655044145
1.1655588659
1.1656654548
1.1658313611
1.1660670889
1.1663861792
1.1668051354
1.1673422572
1.1680166674
1.1688475196
1.1698526287
1.1710478717
1.1724477785
1.1740676763
1.1759288928
1.1780679896
1.1805510035
1.1834896344
1.1870440513
1.1913512041
1.1915509467
1.2277107563
1.2275001710
1.2302598850
1.2319348697
1.2328435078
1.2332432315
1.2333141400
1.2331742361
1.2329067826
1.2325387305
1.2320401926
1.2313816858
1.2305209264
1.2294101991
1.2280033643
1.2262624817
1.2241626801
1.2216960056
1.2188737980
1.2157265831
1.2123030604
1.2086677559
1.2048965001
1.2010723559
1.1972814501
1.1936081219
1.1901321058
1.1869266090
1.1840562860
1.1815771336
1.1795365616
1.1779726723
1.1769146314
1.1763825826
1.1765506512
1.1700342830
1.1690246097
1.1690788325
1.1691845133
1.1693499664
1.1695872852
1.1699119695
1.1703427972
1.1709004755
1.1716065070
1.1724823210
1.1735477168
1.1748202662
1.1763164570
1.1780553040
1.1800681558
1.1824210537
1.1852646244
1.1889489660
1.1942988781
1.2032820390
1.2036546583
1.2202826077
1.2201749888
1.2264946772
1.2294396987
1.2308631338
1.2315217673
1.2317626783
1.2317637854
1.2316193178
1.2313525044
1.2309366740
1.2303439903
1.2295334119
1.2284584301
1.2270748285
1.2253471528
1.2232533678
1.2207885590
1.2179670698
1.2148219605
1.2114039385
1.2077788574
1.2040230119
1.2002192439
1.1964528968
1.1928070430
1.1893599652
1.1861833934
1.1833405419
1.1808861740
1.1788667160
1.1773194942
1.1762731570
1.1757475632
1.1760020144
1.1731567000
1.1721020099
1.1721576806
1.1722656437
1.1724351403
1.1726795361
1.1730158601
1.1734646171
1.1740482284
1.1747896678
1.1757113631
1.1768330790
1.1781704560
1.1797346891
1.1815326038
1.1835684617
1.1858468672
1.1883716627
1.1911260529
1.1939844697
1.1963918167
1.1913661048
1.1954393991
1.2091410334
1.2346348548
1.2286259072
1.2285795479
1.2292819473
1.2299355866
1.2303711312
1.2305943320
1.2306629174
1.2306085950
1.2304172945
1.2300686361
1.2295313896
1.2287637981
1.2277202845
1.2263582740
1.2246445954
1.2225596328
1.2201009188
1.2172850665
1.2141468732
1.2107382841
1.2071258235
1.2033857922
1.1996005972
1.1958548391
1.1922306067
1.1888051967
1.1856494479
1.1828257646
1.1803882829
1.1783829790
1.1768468385
1.1758083149
1.1752871933
1.1756092418
1.1757818208
1.1746886846
1.1747472876
1.1748603872
1.1750379231
1.1752941929
1.1756473116
1.1761189688
1.1767326683
1.1775121274
1.1784799368
1.1796548604
1.1810495244
1.1826688890
1.1845079136
1.1865494752
1.1887614336
1.1910870423
1.1934199925
1.1955432401
1.1969866974
1.1953763876
1.1959289835
1.2092208437
1.2239449156
1.2254383075
1.2268677660
1.2279897033
1.2287924520
1.2293215301
1.2296365884
1.2297963563
1.2298227769
1.2296988877
1.2294068503
1.2289151707
1.2281829812
1.2271659605
1.2258233799
1.2241241715
1.2220506724
1.2196022088
1.2167968600
1.2136703357
1.2102750265
1.2066774746
1.2029535518
1.1991850368
1.1954558514
1.1918473901
1.1884364348
1.1852935053
1.1824808126
1.1800524505
1.1780544590
1.1765239029
1.1754893500
1.1749707132
1.1753419877
1.1778683053
1.1767463037
1.1768091041
1.1769298213
1.1771188530
1.1773910816
1.1777652704
1.1782637865
1.1789106757
1.1797298728
1.1807436899
1.1819696798
1.1834177665
1.1850881580
1.1869680878
1.1890291698
1.1912257967
1.1934915773
1.1957350529
1.1978368213
1.1996536927
1.2006986370
1.2033580599
1.2114693573
1.2201016604
1.2233041178
1.2253836972
1.2268203063
1.2278039730
1.2284604500
1.2288831649
1.2291317471
1.2292246981
1.2291552815
1.2289079625
1.2284523185
1.2277486330
1.2267542383
1.2254302199
1.2237472791
1.2216891914
1.2192563550
1.2164674964
1.2133583906
1.2099810896
1.2064015170
1.2026947013
1.1989416282
1.1952256163
1.1916276640
1.1882245097
1.1850869238
1.1822775232
1.1798509324
1.1778537531
1.1763235362
1.1752892637
1.1747711697
1.1751739449
1.1793854153
1.1782464465
1.1783144876
1.1784449344
1.1786483953
1.1789399898
1.1793387063
1.1798671142
1.1805493315
1.1814091136
1.1824682588
1.1837432027
1.1852418490
1.1869613371
1.1888845863
1.1909781548
1.1931930803
1.1954669598
1.1977321997
1.1999362511
1.2020783766
1.2041855619
1.2073514478
1.2129135915
1.2186621299
1.2220259137
1.2243119231
1.2259107876
1.2270224662
1.2277838862
1.2282953444
1.2286137169
1.2287576570
1.2287304247
1.2285179131
1.2280909088
1.2274114435
1.2264385511
1.2251349327
1.2234726605
1.2214363415
1.2190267028
1.2162622746
1.2131780676
1.2098250403
1.2062678874
1.2025804168
1.1988426780
1.1951374704
1.1915457332
1.1881445969
1.1850056657
1.1821925563
1.1797609799
1.1777585875
1.1762238154
1.1751863510
1.1746669355
1.1750842992
1.1803137005
1.1791710720
1.1792452015
1.1793871709
1.1796075487
1.1799213480
1.1803473711
1.1809079389
1.1816268108
1.1825272252
1.1836302964
1.1849514778
1.1864972588
1.1882629476
1.1902292232
1.1923605109
1.1946075382
1.1969125257
1.1992227184
1.2015165694
1.2038392296
1.2063214284
1.2094853636
1.2137757522
1.2181151432
1.2212735487
1.2235714692
1.2252324279
1.2264164155
1.2272474831
1.2278177241
1.2281815198
1.2283623286
1.2283664287
1.2281809335
1.2277782543
1.2271220980
1.2261730120
1.2248949717
1.2232608765
1.2212555167
1.2188791780
1.2161493596
1.2130995147
1.2097787913
1.2062500875
1.2025856445
1.1988644467
1.1951689130
1.1915802339
1.1881763678
1.1850303231
1.1822073135
1.1797646824
1.1777516040
1.1762077907
1.1751639209
1.1746414215
1.1750573770
1.1806450542
1.1795124952
1.1795934042
1.1797484321
1.1799878679
1.1803262931
1.1807819116
1.1813763596
1.1821326277
1.1830731171
1.1842180829
1.1855820701
1.1871705626
1.1889777699
1.1909831175
1.1931497377
1.1954276296
1.1977598969
1.2000979314
1.2024285788
1.2048052396
1.2073650993
1.2104176005
1.2141295921
1.2178364432
1.2207980085
1.2230480857
1.2247155474
1.2259267275
1.2267907959
1.2273913357
1.2277807959
1.2279854053
1.2280120520
1.2278488589
1.2274695182
1.2268391245
1.2259194290
1.2246752093
1.2230795934
1.2211168753
1.2187861346