<VTKFile type="UnstructuredGrid" version="0.1">
	<UnstructuredGrid>
		<Piece NumberOfPoints="13548" NumberOfCells="3387">
			<CellData>
				<DataArray type="Int32" Name="ghost" NumberOfComponents="1" Format="ascii">
1
1
1
1
1
1
1
1
1
1
1
1
1
1
1
1
1
1
1
1
1
1
1
1
1
1
1
1
1
1
1
1
1
1
1
1
1
1
1
1
1
1
1
1
1
1
1
1
1
1
1
1
1
1
1
1
1
1
0
0
0
0
0
0
0
0
0
0
0
0
0
0
0
0
0
0
0
0
1
1
0
0
0
0
0
0
0
0
0
0
0
0
0
0
0
0
0
0
0
0
0
0
0
0
0
0
0
0
0
0
0
0
0
1
1
0
0
0
0
0
0
0
0
0
0
0
0
0
0
0
0
0
0
0
0
1
1
0
0
0
0
0
0
0
0
0
0
0
0
0
0
0
0
0
0
0
0
0
0
0
0
0
0
0
0
0
0
0
0
0
1
1
0
0
0
0
0
0
0
0
0
0
0
0
0
0
0
0
0
0
0
0
1
1
0
0
0
0
0
0
0
0
0
0
0
0
0
0
0
0
0
0
0
0
0
0
0
0
0
0
0
0
0
0
0
0
0
1
1
0
0
0
0
0
0
0
0
0
0
0
0
0
0
0
0
0
0
0
0
1
1
0
0
0
0
0
0
0
0
0
0
0
0
0
0
0
0
0
0
0
0
0
0
0
0
0
0
0
0
0
0
0
0
0
1
1
0
0
0
0
0
0
0
0
0
0
0
0
0
0
0
0
0
0
0
0
1
1
0
0
0
0
0
0
0
0
0
0
0
0
0
0
0
0
0
0
0
0
0
0
0
0
0
0
0
0
0
0
0
0
0
1
1
0
0
0
0
0
0
0
0
0
0
0
0
0
0
0
0
0
0
0
0
1
1
0
0
0
0
0
0
0
0
0
0
0
0
0
0
0
0
0
0
0
0
0
0
0
0
0
0
0
0
0
0
0
0
0
1
1
0
0
0
0
0
0
0
0
0
0
0
0
0
0
0
0
0
0
0
0
1
1
0
0
0
0
0
0
0
0
0
0
0
0
0
0
0
0
0
0
0
0
0
0
0
0
0
0
0
0
0
0
0
0
0
1
1
0
0
0
0
0
0
0
0
0
0
0
0
0
0
0
0
0
0
0
0
1
1
0
0
0
0
0
0
0
0
0
0
0
0
0
0
0
0
0
0
0
0
0
0
0
0
0
0
0
0
0
0
0
0
0
1
1
0
0
0
0
0
0
0
0
0
0
0
0
0
0
0
0
0
0
0
0
1
1
0
0
0
0
0
0
0
0
0
0
0
0
0
0
0
0
0
0
0
0
0
0
0
0
0
0
0
0
0
0
0
0
0
1
1
0
0
0
0
0
0
0
0
0
0
0
0
0
0
0
0
0
0
0
0
1
1
0
0
0
0
0
0
0
0
0
0
0
0
0
0
0
0
0
0
0
0
0
0
0
0
0
0
0
0
0
0
0
0
0
1
1
0
0
0
0
0
0
0
0
0
0
0
0
0
0
0
0
0
0
0
0
1
1
0
0
0
0
0
0
0
0
0
0
0
0
0
0
0
0
0
0
0
0
0
0
0
0
0
0
0
0
0
0
0
0
0
1
1
0
0
0
0
0
0
0
0
0
0
0
0
0
0
0
0
0
0
0
0
1
1
0
0
0
0
0
0
0
0
0
0
0
0
0
0
0
0
0
0
0
0
0
0
0
0
0
0
0
0
0
0
0
0
0
1
1
0
0
0
0
0
0
0
0
0
0
0
0
0
0
0
0
0
0
0
0
1
1
0
0
0
0
0
0
0
0
0
0
0
0
0
0
0
0
0
0
0
0
0
0
0
0
0
0
0
0
0
0
0
0
0
1
1
0
0
0
0
0
0
0
0
0
0
0
0
0
0
0
0
0
0
0
0
1
1
0
0
0
0
0
0
0
0
0
0
0
0
0
0
0
0
0
0
0
0
0
0
0
0
0
0
0
0
0
0
0
0
0
1
1
0
0
0
0
0
0
0
0
0
0
0
0
0
0
0
0
0
0
0
0
1
1
0
0
0
0
0
0
0
0
0
0
0
0
0
0
0
0
0
0
0
0
0
0
0
0
0
0
0
0
0
0
0
0
0
1
1
0
0
0
0
0
0
0
0
0
0
0
0
0
0
0
0
0
0
0
0
1
1
0
0
0
0
0
0
0
0
0
0
0
0
0
0
0
0
0
0
0
0
0
0
0
0
0
0
0
0
0
0
0
0
0
1
1
0
0
0
0
0
0
0
0
0
0
0
0
0
0
0
0
0
0
0
0
1
1
0
0
0
0
0
0
0
0
0
0
0
0
0
0
0
0
0
0
0
0
0
0
0
0
0
0
0
0
0
0
0
0
0
1
1
0
0
0
0
0
0
0
0
0
0
0
0
0
0
0
0
0
0
0
0
1
1
0
0
0
0
0
0
0
0
0
0
0
0
0
0
0
0
0
0
0
0
0
0
0
0
0
0
0
0
0
0
0
0
0
1
1
0
0
0
0
0
0
0
0
0
0
0
0
0
0
0
0
0
0
0
0
1
1
0
0
0
0
0
0
0
0
0
0
0
0
0
0
0
0
0
0
0
0
0
0
0
0
0
0
0
0
0
0
0
0
0
1
1
0
0
0
0
0
0
0
0
0
0
0
0
0
0
0
0
0
0
0
0
1
1
0
0
0
0
0
0
0
0
0
0
0
0
0
0
0
0
0
0
0
0
0
0
0
0
0
0
0
0
0
0
0
0
0
1
1
0
0
0
0
0
0
0
0
0
0
0
0
0
0
0
0
0
0
0
0
1
1
0
0
0
0
0
0
0
0
0
0
0
0
0
0
0
0
0
0
0
0
0
0
0
0
0
0
0
0
0
0
0
0
0
1
1
0
0
0
0
0
0
0
0
0
0
0
0
0
0
0
0
0
0
0
0
1
1
0
0
0
0
0
0
0
0
0
0
0
0
0
0
0
0
0
0
0
0
0
0
0
0
0
0
0
0
0
0
0
0
0
1
1
0
0
0
0
0
0
0
0
0
0
0
0
0
0
0
0
0
0
0
0
1
1
0
0
0
0
0
0
0
0
0
0
0
0
0
0
0
0
0
0
0
0
0
0
0
0
0
0
0
0
0
0
0
0
0
1
1
0
0
0
0
0
0
0
0
0
0
0
0
0
0
0
0
0
0
0
0
1
1
0
0
0
0
0
0
0
0
0
0
0
0
0
0
0
0
0
0
0
0
0
0
0
0
0
0
0
0
0
0
0
0
0
1
1
0
0
0
0
0
0
0
0
0
0
0
0
0
0
0
0
0
0
0
0
0
1
1
0
0
0
0
0
0
0
0
0
0
0
0
0
0
0
0
0
0
0
0
0
0
0
0
0
0
0
0
0
0
0
0
0
0
1
1
0
0
0
0
0
0
0
0
0
0
0
0
0
0
0
0
0
0
0
0
0
0
0
0
0
0
0
0
0
0
0
0
0
0
0
0
0
0
0
0
0
0
0
0
0
0
0
0
0
0
0
0
0
0
0
0
0
1
1
0
0
0
0
0
0
0
0
0
0
0
0
0
0
0
0
0
0
0
0
0
0
0
0
0
0
0
0
0
0
0
0
0
0
0
0
0
0
0
0
0
0
0
0
0
0
0
0
0
0
0
0
0
0
0
0
0
1
1
0
0
0
0
0
0
0
0
0
0
0
0
0
0
0
0
0
0
0
0
0
0
0
0
0
0
0
0
0
0
0
0
0
0
0
0
0
0
0
0
0
0
0
0
0
0
0
0
0
0
0
0
0
0
0
0
0
1
1
0
0
0
0
0
0
0
0
0
0
0
0
0
0
0
0
0
0
0
0
0
0
0
0
0
0
0
0
0
0
0
0
0
0
0
0
0
0
0
0
0
0
0
0
0
0
0
0
0
0
0
0
0
0
0
0
0
1
1
0
0
0
0
0
0
0
0
0
0
0
0
0
0
0
0
0
0
0
0
0
0
0
0
0
0
0
0
0
0
0
0
0
0
0
0
0
0
0
0
0
0
0
0
0
0
0
0
0
0
0
0
0
0
0
0
0
1
1
0
0
0
0
0
0
0
0
0
0
0
0
0
0
0
0
0
0
0
0
0
0
0
0
0
0
0
0
0
0
0
0
0
0
0
0
0
0
0
0
0
0
0
0
0
0
0
0
0
0
0
0
0
0
0
0
0
1
1
0
0
0
0
0
0
0
0
0
0
0
0
0
0
0
0
0
0
0
0
0
0
0
0
0
0
0
0
0
0
0
0
0
0
0
0
0
0
0
0
0
0
0
0
0
0
0
0
0
0
0
0
0
0
0
0
0
1
1
0
0
0
0
0
0
0
0
0
0
0
0
0
0
0
0
0
0
0
0
0
0
0
0
0
0
0
0
0
0
0
0
0
0
0
0
0
0
0
0
0
0
0
0
0
0
0
0
0
0
0
0
0
0
0
0
0
1
1
0
0
0
0
0
0
0
0
0
0
0
0
0
0
0
0
0
0
0
0
0
0
0
0
0
0
0
0
0
0
0
0
0
0
0
0
0
0
0
0
0
0
0
0
0
0
0
0
0
0
0
0
0
0
0
0
0
1
1
0
0
0
0
0
0
0
0
0
0
0
0
0
0
0
0
0
0
0
0
0
0
0
0
0
0
0
0
0
0
0
0
0
0
0
0
0
0
0
0
0
0
0
0
0
0
0
0
0
0
0
0
0
0
0
0
0
1
1
0
0
0
0
0
0
0
0
0
0
0
0
0
0
0
0
0
0
0
0
0
1
1
0
0
0
0
0
0
0
0
0
0
0
0
0
0
0
0
0
0
0
0
0
0
0
0
0
0
0
0
0
0
0
0
0
0
1
1
0
0
0
0
0
0
0
0
0
0
0
0
0
0
0
0
0
0
0
0
1
1
0
0
0
0
0
0
0
0
0
0
0
0
0
0
0
0
0
0
0
0
0
0
0
0
0
0
0
0
0
0
0
0
0
1
1
0
0
0
0
0
0
0
0
0
0
0
0
0
0
0
0
0
0
0
0
1
1
0
0
0
0
0
0
0
0
0
0
0
0
0
0
0
0
0
0
0
0
0
0
0
0
0
0
0
0
0
0
0
0
0
1
1
0
0
0
0
0
0
0
0
0
0
0
0
0
0
0
0
0
0
0
0
1
1
0
0
0
0
0
0
0
0
0
0
0
0
0
0
0
0
0
0
0
0
0
0
0
0
0
0
0
0
0
0
0
0
0
1
1
0
0
0
0
0
0
0
0
0
0
0
0
0
0
0
0
0
0
0
0
1
1
0
0
0
0
0
0
0
0
0
0
0
0
0
0
0
0
0
0
0
0
0
0
0
0
0
0
0
0
0
0
0
0
0
1
1
0
0
0
0
0
0
0
0
0
0
0
0
0
0
0
0
0
0
0
0
1
1
0
0
0
0
0
0
0
0
0
0
0
0
0
0
0
0
0
0
0
0
0
0
0
0
0
0
0
0
0
0
0
0
0
1
1
0
0
0
0
0
0
0
0
0
0
0
0
0
0
0
0
0
0
0
0
1
1
0
0
0
0
0
0
0
0
0
0
0
0
0
0
0
0
0
0
0
0
0
0
0
0
0
0
0
0
0
0
0
0
0
1
1
0
0
0
0
0
0
0
0
0
0
0
0
0
0
0
0
0
0
0
0
1
1
0
0
0
0
0
0
0
0
0
0
0
0
0
0
0
0
0
0
0
0
0
0
0
0
0
0
0
0
0
0
0
0
0
1
1
0
0
0
0
0
0
0
0
0
0
0
0
0
0
0
0
0
0
0
0
1
1
0
0
0
0
0
0
0
0
0
0
0
0
0
0
0
0
0
0
0
0
0
0
0
0
0
0
0
0
0
0
0
0
0
1
1
0
0
0
0
0
0
0
0
0
0
0
0
0
0
0
0
0
0
0
0
1
1
0
0
0
0
0
0
0
0
0
0
0
0
0
0
0
0
0
0
0
0
0
0
0
0
0
0
0
0
0
0
0
0
0
1
1
0
0
0
0
0
0
0
0
0
0
0
0
0
0
0
0
0
0
0
0
1
1
0
0
0
0
0
0
0
0
0
0
0
0
0
0
0
0
0
0
0
0
0
0
0
0
0
0
0
0
0
0
0
0
0
1
1
0
0
0
0
0
0
0
0
0
0
0
0
0
0
0
0
0
0
0
0
1
1
0
0
0
0
0
0
0
0
0
0
0
0
0
0
0
0
0
0
0
0
0
0
0
0
0
0
0
0
0
0
0
0
0
1
1
0
0
0
0
0
0
0
0
0
0
0
0
0
0
0
0
0
0
0
0
1
1
0
0
0
0
0
0
0
0
0
0
0
0
0
0
0
0
0
0
0
0
0
0
0
0
0
0
0
0
0
0
0
0
0
1
1
0
0
0
0
0
0
0
0
0
0
0
0
0
0
0
0
0
0
0
0
1
1
0
0
0
0
0
0
0
0
0
0
0
0
0
0
0
0
0
0
0
0
0
0
0
0
0
0
0
0
0
0
0
0
0
1
1
0
0
0
0
0
0
0
0
0
0
0
0
0
0
0
0
0
0
0
0
1
1
0
0
0
0
0
0
0
0
0
0
0
0
0
0
0
0
0
0
0
0
0
0
0
0
0
0
0
0
0
0
0
0
0
1
1
0
0
0
0
0
0
0
0
0
0
0
0
0
0
0
0
0
0
0
0
1
1
0
0
0
0
0
0
0
0
0
0
0
0
0
0
0
0
0
0
0
0
0
0
0
0
0
0
0
0
0
0
0
0
0
1
1
0
0
0
0
0
0
0
0
0
0
0
0
0
0
0
0
0
0
0
0
1
1
0
0
0
0
0
0
0
0
0
0
0
0
0
0
0
0
0
0
0
0
0
0
0
0
0
0
0
0
0
0
0
0
0
1
1
0
0
0
0
0
0
0
0
0
0
0
0
0
0
0
0
0
0
0
0
1
1
0
0
0
0
0
0
0
0
0
0
0
0
0
0
0
0
0
0
0
0
0
0
0
0
0
0
0
0
0
0
0
0
0
1
1
0
0
0
0
0
0
0
0
0
0
0
0
0
0
0
0
0
0
0
0
1
1
0
0
0
0
0
0
0
0
0
0
0
0
0
0
0
0
0
0
0
0
0
0
0
0
0
0
0
0
0
0
0
0
0
1
1
0
0
0
0
0
0
0
0
0
0
0
0
0
0
0
0
0
0
0
0
1
1
0
0
0
0
0
0
0
0
0
0
0
0
0
0
0
0
0
0
0
0
0
0
0
0
0
0
0
0
0
0
0
0
0
1
1
0
0
0
0
0
0
0
0
0
0
0
0
0
0
0
0
0
0
0
0
1
1
0
0
0
0
0
0
0
0
0
0
0
0
0
0
0
0
0
0
0
0
0
0
0
0
0
0
0
0
0
0
0
0
0
1
1
0
0
0
0
0
0
0
0
0
0
0
0
0
0
0
0
0
0
0
0
1
1
0
0
0
0
0
0
0
0
0
0
0
0
0
0
0
0
0
0
0
0
0
0
0
0
0
0
0
0
0
0
0
0
0
1
1
1
1
1
1
1
1
1
1
1
1
1
1
1
1
1
1
1
1
1
1
1
1
1
1
1
1
1
1
1
1
1
1
1
1
1
1
1
1
1
1
1
1
1
1
1
1
1
1
1
1
1
1
1
1
1
1
				</DataArray>
				<DataArray type="Float64" Name="h" NumberOfComponents="1" Format="ascii">
1.2134587881
1.2136759352
1.2136622630
1.2136349063
1.2135945720
1.2135422830
1.2134793863
1.2134076126
1.2133289299
1.2132455154
1.2131597133
1.2130738814
1.2129903367
1.2129112424
1.2128385186
1.2127738219
1.2127184369
1.2126733243
1.2126391799
1.2126163686
1.2126050834
1.2126050834
1.1835425616
1.1820447638
1.1820821119
1.1821582666
1.1822757974
1.1824385331
1.1826514559
1.1829205398
1.1832526912
1.1836555724
1.1841373858
1.1847065795
1.1853713437
1.1861391198
1.1870160832
1.1880066134
1.1891129412
1.1903345696
1.1916674829
1.1931034751
1.1946307149
1.1962329816
1.1978895897
1.1995756697
1.2012624724
1.2029181642
1.2045088094
1.2059994053
1.2073552364
1.2085433031
1.2095335930
1.2103003777
1.2108233716
1.2110885489
1.2110885489
1.2136759352
1.2138220521
1.2138178371
1.2138091525
1.2137962478
1.2137794747
1.2137593065
1.2137364183
1.2137115677
1.2136855929
1.2136594078
1.2136338880
1.2136098521
1.2135879898
1.2135688135
1.2135526691
1.2135396615
1.2135297316
1.2135227340
1.2135183889
1.2135164529
1.2126050834
1.1820447638
1.1805807204
1.1806258932
1.1807176608
1.1808585211
1.1810521989
1.1813035437
1.1816183769
1.1820034434
1.1824662218
1.1830146733
1.1836569157
1.1844006965
1.1852529130
1.1862191252
1.1873030096
1.1885059581
1.1898265502
1.1912597634
1.1927965321
1.1944234328
1.1961229140
1.1978730980
1.1996478687
1.2014173330
1.2031486699
1.2048071585
1.2063572315
1.2077638443
1.2089938823
1.2100173817
1.2108087809
1.2113480044
1.2116212118
1.2110885489
1.2132118922
1.2133604050
1.2133581068
1.2133532036
1.2133458463
1.2133362411
1.2133246715
1.2133115828
1.2132974697
1.2132828811
1.2132684255
1.2132546683
1.2132421229
1.2132311910
1.2132221230
1.2132150360
1.2132098436
1.2132063341
1.2132042471
1.2132032208
1.2132029602
1.2122859402
1.1821949605
1.1807324953
1.1807775325
1.1808690255
1.1810094715
1.1812025936
1.1814532384
1.1817672239
1.1821512881
1.1826128962
1.1831599883
1.1838006543
1.1845426125
1.1853927372
1.1863565698
1.1874377740
1.1886377385
1.1899550265
1.1913845936
1.1929174309
1.1945400326
1.1962350067
1.1979804691
1.1997503349
1.2015147744
1.2032410534
1.2048945553
1.2064398326
1.2078419725
1.2090679994
1.2100880873
1.2108768011
1.2114141713
1.2116864341
1.2111473169
1.2122964681
1.2124489175
1.2124503686
1.2124528617
1.2124563548
1.2124607697
1.2124660183
1.2124720970
1.2124789862
1.2124866690
1.2124951570
1.2125044089
1.2125143414
1.2125247926
1.2125355006
1.2125461344
1.2125562326
1.2125652854
1.2125728066
1.2125782743
1.2125812920
1.2116536440
1.1824855021
1.1810266924
1.1810715875
1.1811627833
1.1813027657
1.1814952387
1.1817450237
1.1820579099
1.1824405982
1.1829005050
1.1834455083
1.1840836268
1.1848225090
1.1856689711
1.1866285129
1.1877047696
1.1888991195
1.1902101058
1.1916326647
1.1931577577
1.1947720264
1.1964581651
1.1981943542
1.1999545979
1.2017092005
1.2034255966
1.2050693709
1.2066053063
1.2079987426
1.2092169703
1.2102304287
1.2110139261
1.2115476974
1.2118181265
1.2112663489
1.2109507611
1.2111077149
1.2111145799
1.2111277536
1.2111469163
1.2111715800
1.2112011213
1.2112348897
1.2112721243
1.2113119928
1.2113536458
1.2113961659
1.2114386076
1.2114799931
1.2115193182
1.2115556011
1.2115878358
1.2116150782
1.2116365135
1.2116513868
1.2116591534
1.2107167775
1.1829156384
1.1814629896
1.1815076949
1.1815984914
1.1817378463
1.1819294327
1.1821780305
1.1824893795
1.1828701191
1.1833275872
1.1838695676
1.1845039733
1.1852383499
1.1860794281
1.1870326476
1.1881016109
1.1892876605
1.1905893117
1.1920015715
1.1935151812
1.1951172506
1.1967904236
1.1985130313
1.2002592179
1.2019994864
1.2037015140
1.2053311731
1.2068535767
1.2082344245
1.2094413847
1.2104452741
1.2112212473
1.2117498299
1.2120176163
1.2114474871
1.2092056160
1.2093663569
1.2093800636
1.2094067359
1.2094457045
1.2094959657
1.2095562227
1.2096250102
1.2097006334
1.2097812315
1.2098648682
1.2099495187
1.2100331453
1.2101137353
1.2101893402
1.2102581499
1.2103184632
1.2103687816
1.2104078711
1.2104346793
1.2104484730
1.2094885239
1.1834839209
1.1820405442
1.1820849558
1.1821751420
1.1823135497
1.1825038170
1.1827506738
1.1830597992
1.1834377538
1.1838917768
1.1844295354
1.1850588124
1.1857870241
1.1866208082
1.1875655308
1.1886247245
1.1897997442
1.1910890922
1.1924876000
1.1939863322
1.1955725230
1.1972288861
1.1989339590
1.2006620665
1.2023839664
1.2040676398
1.2056793176
1.2071845238
1.2085494049
1.2097420979
1.2107338863
1.2115003537
1.2120223860
1.2122868383
1.2116934201
1.2071005615
1.2072629443
1.2072846321
1.2073270527
1.2073891317
1.2074692676
1.2075653820
1.2076750636
1.2077955322
1.2079237295
1.2080564522
1.2081903812
1.2083222003
1.2084486817
1.2085667669
1.2086736691
1.2087668685
1.2088442138
1.2089039786
1.2089447635
1.2089656164
1.2079867945
1.1841881830
1.1827579280
1.1828018702
1.1828910961
1.1830280396
1.1832163102
1.1834605920
1.1837665023
1.1841405178
1.1845897688
1.1851217928
1.1857442280
1.1864643561
1.1872887149
1.1882225527
1.1892694123
1.1904305948
1.1917045454
1.1930861246
1.1945667449
1.1961336520
1.1977697370
1.1994537603
1.2011602917
1.2028603768
1.2045223468
1.2061128420
1.2075978533
1.2089440353
1.2101200564
1.2110977297
1.2118531243
1.2123675342
1.2126281102
1.2120074405
1.2046820190
1.2048425260
1.2048730155
1.2049328063
1.2050203811
1.2051334844
1.2052691815
1.2054240231
1.2055940358
1.2057748430
1.2059618422
1.2061502822
1.2063354274
1.2065126991
1.2066778009
1.2068268580
1.2069564394
1.2070636712
1.2071462878
1.2072025143
1.2072311661
1.2062338828
1.1850261335
1.1836136591
1.1836568625
1.1837445988
1.1838793088
1.1840645954
1.1843051159
1.1846064414
1.1849749717
1.1854177302
1.1859421231
1.1865556405
1.1872654412
1.1880779181
1.1889982715
1.1900300287
1.1911744118
1.1924298685
1.1937915777
1.1952509867
1.1967955008
1.1984082422
1.2000681957
1.2017502418
1.2034257296
1.2050633693
1.2066302374
1.2080928208
1.2094183107
1.2105759383
1.2115380762
1.2122813064
1.2127873541
1.2130436830
1.2123929706
1.2020015857
1.2021555272
1.2021953153
1.2022734607
1.2023879834
1.2025359427
1.2027135058
1.2029161321
1.2031385906
1.2033751106
1.2036196063
1.2038658029
1.2041074503
1.2043385247
1.2045534064
1.2047470584
1.2049150840
1.2050538542
1.2051605519
1.2052330314
1.2052698877
1.2042563134
1.1859948103
1.1846056060
1.1846476896
1.1847331956
1.1848646091
1.1850455692
1.1852807467
1.1855756993
1.1859367705
1.1863708908
1.1868853510
1.1874874751
1.1881843511
1.1889821368
1.1898862021
1.1908997965
1.1920243566
1.1932584540
1.1945973514
1.1960326660
1.1975520100
1.1991387918
1.2007722055
1.2024274937
1.2040763287
1.2056877996
1.2072294221
1.2086681771
1.2099717881
1.2111100435
1.2120558714
1.2127863619
1.2132836681
1.2135355648
1.2128533448
1.1991142492
1.1992561025
1.1993053806
1.1994022640
1.1995443055
1.1997278718
1.1999482193
1.2001996968
1.2004757894
1.2007692972
1.2010726073
1.2013778705
1.2016772666
1.2019632724
1.2022288965
1.2024679066
1.2026749286
1.2028455909
1.2029765626
1.2030653799
1.2031104710
1.2020844391
1.1870904980
1.1857308445
1.1857712936
1.1858535784
1.1859802916
1.1861551796
1.1863829931
1.1866693320
1.1870205135
1.1874433948
1.1879452024
1.1885330545
1.1892139270
1.1899940581
1.1908785473
1.1918709897
1.1929727554
1.1941825433
1.1954958065
1.1969043841
1.1983961426
1.1999548145
1.2015598225
1.2031867314
1.2048076132
1.2063918955
1.2079075083
1.2093218940
1.2106032691
1.2117219379
1.2126513440
1.2133690487
1.2138576035
1.2141050733
1.2133913178
1.1960760811
1.1961999180
1.1962586111
1.1963740914
1.1965434533
1.1967623823
1.1970252348
1.1973252575
1.1976546545
1.1980047920
1.1983665174
1.1987303861
1.1990869820
1.1994272579
1.1997428360
1.2000262934
1.2002713131
1.2004728506
1.2006271646
1.2007315978
1.2007845297
1.1997512956
1.1883092615
1.1869861213
1.1870242521
1.1871020125
1.1872222048
1.1873887943
1.1876067097
1.1878816834
1.1882200331
1.1886285690
1.1891144241
1.1896847214
1.1903462141
1.1911052559
1.1919670153
1.1929350555
1.1940108876
1.1951934146
1.1964783322
1.1978577558
1.1993198451
1.2008487035
1.2024239948
1.2040216027
1.2056139359
1.2071707985
1.2086604618
1.2100507654
1.2113103458
1.2124099472
1.2133234551
1.2140288348
1.2145089814
1.2147522116
1.2140083900
1.1929423802
1.1930423046
1.1931101281
1.1932436513
1.1934395289
1.1936927894
1.1939969167
1.1943440813
1.1947252276
1.1951303019
1.1955486153
1.1959691221
1.1963807988
1.1967730668
1.1971361688
1.1974615281
1.1977419674
1.1979719072
1.1981473898
1.1982657945
1.1983256756
1.1972915712
1.1896464162
1.1883672744
1.1884021838
1.1884737207
1.1885850604
1.1887405548
1.1889454481
1.1892056786
1.1895276998
1.1899183113
1.1903845422
1.1909335575
1.1915721387
1.1923065444
1.1931420120
1.1940822339
1.1951289326
1.1962812745
1.1975352618
1.1988833421
1.2003140088
1.2018117906
1.2033565945
1.2049245946
1.2064885170
1.2080184595
1.2094830003
1.2108502757
1.2120892377
1.2131709635
1.2140696768
1.2147636535
1.2152360558
1.2154753987
1.2147044702
1.1897662153
1.1898367800
1.1899133057
1.1900640357
1.1902852089
1.1905712284
1.1909147415
1.1913068763
1.1917373453
1.1921946920
1.1926666945
1.1931406973
1.1936040537
1.1940446429
1.1944513393
1.1948144686
1.1951261204
1.1953803985
1.1955734440
1.1957030628
1.1957683779
1.1947403844
1.1910963742
1.1898690180
1.1898994866
1.1899625513
1.1900620327
1.1902029323
1.1903910183
1.1906325624
1.1909342385
1.1913029133
1.1917456291
1.1922694590
1.1928811856
1.1935871019
1.1943925628
1.1953014638
1.1963158085
1.1974350998
1.1986557167
1.1999704966
1.2013683193
1.2028341676
1.2043482020
1.2058868717
1.2074231463
1.2089273549
1.2103682758
1.2117142455
1.2129344013
1.2140000202
1.2148855372
1.2155694240
1.2160350171
1.2162709653
1.2154773064
1.1865967683
1.1866333194
1.1867180438
1.1868849975
1.1871300289
1.1874469501
1.1878276087
1.1882621230
1.1887389964
1.1892453763
1.1897674945
1.1902910530
1.1908017384
1.1912858476
1.1917308750
1.1921261001
1.1924630377
1.1927357792
1.1929410395
1.1930776790
1.1931460682
1.1921313517
1.1926531125
1.1914853526
1.1915096820
1.1915612403
1.1916449589
1.1917668993
1.1919336465
1.1921520142
1.1924289153
1.1927712958
1.1931861882
1.1936806076
1.1942613394
1.1949347575
1.1957063931
1.1965804148
1.1975591869
1.1986426302
1.1998275747
1.2011073158
1.2024711634
1.2039045760
1.2053879779
1.2068980545
1.2084079678
1.2098881697
1.2113075309
1.2126344495
1.2138381084
1.2148898354
1.2157641332
1.2164395406
1.2168994650
1.2171326162
1.2163218778
1.1834783511
1.1834772708
1.1835696831
1.1837518638
1.1840192964
1.1843652339
1.1847807578
1.1852550007
1.1857752649
1.1863272853
1.1868957002
1.1874644923
1.1880175810
1.1885395765
1.1890165184
1.1894366443
1.1897910503
1.1900741985
1.1902840553
1.1904215177
1.1904893667
1.1894948352
1.1943098635
1.1932092304
1.1932249729
1.1932608418
1.1933236761
1.1934212212
1.1935612593
1.1937513049
1.1939985556
1.1943099944
1.1946925841
1.1951532578
1.1956987928
1.1963356749
1.1970696665
1.1979052844
1.1988453397
1.1998902578
1.2010374028
1.2022805941
1.2036096313
1.2050104132
1.2064636655
1.2079462668
1.2094314967
1.2108898313
1.2122900936
1.2136006006
1.2147904211
1.2158307757
1.2166960843
1.2173648184
1.2178203478
1.2180513685
1.2172302542
1.1804500115
1.1804088630
1.1805085046
1.1807050202
1.1809935521
1.1813668235
1.1818151766
1.1823267706
1.1828876952
1.1834822254
1.1840933110
1.1847030728
1.1852934761
1.1858472311
1.1863487246
1.1867850404
1.1871469399
1.1874296751
1.1876333722
1.1877624659
1.1878241392
1.1868560535
1.1960592617
1.1950326783
1.1950361230
1.1950503241
1.1950853930
1.1951516910
1.1952586674
1.1954146643
1.1956271050
1.1959028696
1.1962487153
1.1966714025
1.1971776615
1.1977741023
1.1984667716
1.1992606123
1.2001589747
1.2011628826
1.2022703184
1.2034756980
1.2047695574
1.2061376270
1.2075614735
1.2090179945
1.2104804960
1.2119193601
1.2133032294
1.2146001810
1.2157790077
1.2168106626
1.2176693317
1.2183332860
1.2187857519
1.2190153383
1.2181913139
1.1775450253
1.1774625889
1.1775690989
1.1777792523
1.1780878729
1.1784871814
1.1789668034
1.1795139277
1.1801134013
1.1807479578
1.1813987134
1.1820457037
1.1826686365
1.1832479478
1.1837659709
1.1842082954
1.1845652256
1.1848331364
1.1850154195
1.1851222584
1.1851686378
1.1842323179
1.1978943584
1.1969478160
1.1969329788
1.1969166137
1.1969144470
1.1969407985
1.1970072822
1.1971230424
1.1972954660
1.1975310169
1.1978359845
1.1982167857
1.1986800225
1.1992324274
1.1998803830
1.2006293426
1.2014832952
1.2024439617
1.2035100274
1.2046765565
1.2059348062
1.2072707443
1.2086660835
1.2100980751
1.2115399426
1.2129618452
1.2143321015
1.2156183985
1.2167890943
1.2178147189
1.2186690819
1.2193301292
1.2197808449
1.2200096832
1.2191906248
1.1747908872
1.1746671145
1.1747802640
1.1750036205
1.1753317134
1.1757562907
1.1762662868
1.1768479220
1.1774847541
1.1781578767
1.1788463773
1.1795279018
1.1801794569
1.1807786155
1.1813049500
1.1817418186
1.1820784995
1.1823124581
1.1824514545
1.1825144817
1.1825300562
1.1816296986
1.1998098131
1.1989480854
1.1989046703
1.1988439458
1.1987912260
1.1987665674
1.1987840631
1.1988532462
1.1989808304
1.1991722683
1.1994329416
1.1997686538
1.2001857560
1.2006910926
1.2012914402
1.2019928575
1.2028000821
1.2037156341
1.2047389891
1.2058659334
1.2070884229
1.2083927495
1.2097608431
1.2111699902
1.2125933506
1.2140007771
1.2153601315
1.2166385674
1.2178038621
1.2188259832
1.2196782359
1.2203381308
1.2207883235
1.2210170554
1.2202108489
1.1722097473
1.1720456589
1.1721653677
1.1724017884
1.1727491864
1.1731988783
1.1737391443
1.1743552385
1.1750294031
1.1757409868
1.1764668371
1.1771818354
1.1778597090
1.1784743228
1.1790013625
1.1794205859
1.1797188298
1.1798936820
1.1799577596
1.1799425580
1.1798994265
1.1790380270
1.2018048519
1.2010312635
1.2009403637
1.2008130926
1.2006907987
1.2006011928
1.2005604251
1.2005771712
1.2006561872
1.2008009079
1.2010151402
1.2013037054
1.2016725550
1.2021286449
1.2026792258
1.2033310788
1.2040898159
1.2049588726
1.2059386030
1.2070255779
1.2082124388
1.2094858823
1.2108279703
1.2122160156
1.2136229694
1.2150182758
1.2163692420
1.2176423679
1.2188047271
1.2198256066
1.2206777013
1.2213379963
1.2217887491
1.2220179410
1.2212320589
1.1698186590
1.1696161908
1.1697425247
1.1699921611
1.1703591459
1.1708344193
1.1714056594
1.1720571968
1.1727699664
1.1735215154
1.1742862588
1.1750359358
1.1757403247
1.1763685007
1.1768906379
1.1772806254
1.1775199968
1.1776034988
1.1775469450
1.1773972585
1.1772423141
1.1764216941
1.2038896832
1.2032059741
1.2030306645
1.2028000988
1.2025809930
1.2024094482
1.2023012497
1.2022613584
1.2022902699
1.2023878570
1.2025554511
1.2027964610
1.2031163122
1.2035221217
1.2040217451
1.2046228413
1.2053320487
1.2061538425
1.2070895577
1.2081366298
1.2092882927
1.2105317105
1.2118491007
1.2132177095
1.2146101978
1.2159955136
1.2173403049
1.2186103225
1.2197718418
1.2207933801
1.2216469428
1.2223089230
1.2227611287
1.2229912485
1.2222323316
1.1676299711
1.1673918126
1.1675249685
1.1677882327
1.1681754833
1.1686773562
1.1692810248
1.1699699997
1.1707239905
1.1715187766
1.1723262574
1.1731147462
1.1738494529
1.1744934679
1.1750093807
1.1753618445
1.1755220311
1.1754750836
1.1752328781
1.1748551795
1.1744815972
1.1737024913
1.2060979535
1.2055042670
1.2051682259
1.2047723961
1.2044182376
1.2041457231
1.2039632204
1.2038662999
1.2038474653
1.2039009234
1.2040244820
1.2042197594
1.2044916457
1.2048475887
1.2052962701
1.2058464417
1.2065059542
1.2072804654
1.2081723845
1.2091801943
1.2102973736
1.2115118107
1.2128058315
1.2141565661
1.2155363189
1.2169134574
1.2182539007
1.2195225813
1.2206849107
1.2217085792
1.2225648522
1.2232294902
1.2236838214
1.2239152218
1.2231886994
1.1656519990
1.1653814338
1.1655216992
1.1657991700
1.1662076190
1.1667374880
1.1673755967
1.1681048162
1.1689038361
1.1697468645
1.1706034266
1.1714384068
1.1722121226
1.1728806941
1.1733969232
1.1737118790
1.1737784668
1.1735591496
1.1730428333
1.1722809865
1.1714626436
1.1707248128
1.2085127933
1.2080077861
1.2073451092
1.2066794080
1.2061398363
1.2057495559
1.2054929037
1.2053460606
1.2052882130
1.2053055288
1.2053914011
1.2055455622
1.2057726470
1.2060808246
1.2064799702
1.2069802270
1.2075908827
1.2083189277
1.2091679264
1.2101376298
1.2112215263
1.2124082002
1.2136802136
1.2150145227
1.2163830131
1.2177534259
1.2190909094
1.2203595397
1.2215238348
1.2225506328
1.2234104403
1.2240783700
1.2245352606
1.2247681694
1.2240779503
1.1638895213
1.1635902520
1.1637378823
1.1640301156
1.1644607022
1.1650200314
1.1656947799
1.1664674577
1.1673160911
1.1682137559
1.1691280938
1.1700210589
1.1708484364
1.1715592372
1.1720951003
1.1723893068
1.1723662719
1.1719438163
1.1710452374
1.1696414065
1.1678767866
1.1671791208
1.2113227966
1.2109038876
1.2095375454
1.2084297597
1.2076496144
1.2071399542
1.2068261490
1.2066491015
1.2065704114
1.2065662251
1.2066253344
1.2067461725
1.2069339217
1.2071982198
1.2075507046
1.2080033118
1.2085670353
1.2092503658
1.2100581369
1.2109910630
1.2120433639
1.2132038886
1.2144553654
1.2157745920
1.2171330364
1.2184978033
1.2198332599
1.2211026269
1.2222695352
1.2232999806
1.2241637215
1.2248352342
1.2252948768
1.2255293951
1.2248776526
1.1623441536
1.1620201871
1.1621753381
1.1624827319
1.1629361984
1.1635262394
1.1642396318
1.1650588686
1.1659617949
1.1669210245
1.1679032199
1.1688686136
1.1697700138
1.1705510927
1.1711437783
1.1714628644
1.1713962174
1.1707883801
1.1694162638
1.1669690620
1.1631053808
1.1624462041
1.2149450234
1.2146087112
1.2116500818
1.2098384873
1.2087911379
1.2082058255
1.2078880068
1.2077237373
1.2076534688
1.2076495258
1.2076975731
1.2077960000
1.2079520494
1.2081780207
1.2084881222
1.2088965822
1.2094163985
1.2100577273
1.2108268064
1.2117250597
1.2127476691
1.2138837873
1.2151162336
1.2164216164
1.2177709808
1.2191308092
1.2204647198
1.2217351163
1.2229047858
1.2239389246
1.2248065836
1.2254816372
1.2259439901
1.2261800952
1.2255671771
1.1610151202
1.1606706774
1.1608333557
1.1611560091
1.1616326420
1.1622540287
1.1630072955
1.1638752877
1.1648362234
1.1658630901
1.1669228287
1.1679758934
1.1689751585
1.1698637400
1.1705712607
1.1710046141
1.1710263935
1.1704041661
1.1686842616
1.1648701501
1.1566053309
1.1559884538
1.2202957556
1.2200377252
1.2133360860
1.2105100693
1.2093076669
1.2088010420
1.2085962222
1.2085223366
1.2085069969
1.2085288708
1.2085845542
1.2086736186
1.2088070904
1.2090015078
1.2092746259
1.2096435076
1.2101234344
1.2107263406
1.2114600440
1.2123263481
1.2133215667
1.2144352257
1.2156501797
1.2169428303
1.2182838171
1.2196390494
1.2209714593
1.2222427060
1.2234148098
1.2244522427
1.2253234144
1.2260016540
1.2264664558
1.2267040080
1.2261284735
1.1598999911
1.1595394195
1.1597094112
1.1600469676
1.1605463358
1.1611986871
1.1619917001
1.1629088891
1.1639293456
1.1650272258
1.1661710577
1.1673237688
1.1684424547
1.1694779181
1.1703752055
1.1710741946
1.1715120453
1.1716347571
1.1714350284
1.1710752247
1.1713735733
1.1789316029
1.1848939239
1.1778979907
1.1946268827
1.2052065302
1.2071748105
1.2079545636
1.2083698645
1.2086507477
1.2088572732
1.2090074958
1.2091133287
1.2091922698
1.2092712975
1.2093636712
1.2094838084
1.2096538608
1.2098960609
1.2102307420
1.2106756532
1.2112445706
1.2119463967
1.2127842307
1.2137549131
1.2148483497
1.2160474293
1.2173283707
1.2186614638
1.2200121234
1.2213426915
1.2226141892
1.2237879791
1.2248279115
1.2257018452
1.2263826395
1.2268494339
1.2270881891
1.2265469670
1.1589950881
1.1586228119
1.1587996270
1.1591511483
1.1596718961
1.1603534958
1.1611842790
1.1621485997
1.1632266826
1.1643942588
1.1656220190
1.1668761355
1.1681187891
1.1693089238
1.1704052576
1.1713708992
1.1721819509
1.1728475186
1.1734512464
1.1742442786
1.1759099646
1.1807258410
1.1852273498
1.1781818260
1.1908709015
1.1995940896
1.2036556956
1.2059874088
1.2074054963
1.2083068661
1.2088908271
1.2092670546
1.2095037344
1.2096505798
1.2097577237
1.2098593541
1.2099731408
1.2101252599
1.2103426465
1.2106489393
1.2110642771
1.2116041068
1.2122783964
1.2130916051
1.2140409776
1.2151166514
1.2163015377
1.2175717164
1.2188972060
1.2202430339
1.2215710793
1.2228418610
1.2240162207
1.2250575142
1.2259331596
1.2266156370
1.2270837989
1.2273234208
1.2268120877
1.1582962279
1.1579167220
1.1580995651
1.1584634625
1.1590031914
1.1597108105
1.1605752829
1.1615817880
1.1627116760
1.1639422537
1.1652463332
1.1665931228
1.1679492347
1.1692800232
1.1705536662
1.1717468532
1.1728535970
1.1739026424
1.1749855314
1.1763032683
1.1782548361
1.1815603608
1.1847056872
1.1845575732
1.1917194346
1.1978985391
1.2019807530
1.2047750829
1.2066734469
1.2079545823
1.2088071039
1.2093607172
1.2097073269
1.2099158601
1.2100491299
1.2101596023
1.2102713360
1.2104107903
1.2106091649
1.2108929790
1.2112842231
1.2118000610
1.2124520729
1.2132450796
1.2141766906
1.2152372233
1.2164096276
1.2176699059
1.2189879045
1.2203283951
1.2216529455
1.2229217322
1.2240952357
1.2251364632
1.2260125188
1.2266956069
1.2271643689
1.2274044435
1.2269175874
1.1577997037
1.1574174758
1.1576052569
1.1579793074
1.1585345986
1.1592635231
1.1601555377
1.1611964675
1.1623685248
1.1636502826
1.1650161987
1.1664377494
1.1678846781
1.1693265069
1.1707369508
1.1720995556
1.1734153375
1.1747166752
1.1760849511
1.1776701420
1.1797058042
1.1824417060
1.1852833537
1.1874305752
1.1924469483
1.1972912892
1.2011153805
1.2040139622
1.2061272582
1.2076204144
1.2086423452
1.2093168245
1.2097423275
1.2099971696
1.2101506332
1.2102672950
1.2103788630
1.2105096261
1.2106937925
1.2109603412
1.2113335438
1.2118319165
1.2124674070
1.2132450450
1.2141627001
1.2152108484
1.2163725114
1.2176236922
1.2189341824
1.2202686475
1.2215885140
1.2228537940
1.2240247824
1.2250642996
1.2259392737
1.2266217472
1.2270902334
1.2273302862
1.2268619197
1.1575039777
1.1571235980
1.1573149191
1.1576962329
1.1582625904
1.1590065433
1.1599178227
1.1609826859
1.1621839802
1.1635008536
1.1649086423
1.1663800724
1.1678865938
1.1693998942
1.1708963831
1.1723625748
1.1738016847
1.1752450649
1.1767636429
1.1784743139
1.1805310911
1.1830519332
1.1858277657
1.1886900345
1.1928356206
1.1970087917
1.2006065053
1.2034962704
1.2056933087
1.2072908032
1.2084047897
1.2091486090
1.2096207728
1.2099034027
1.2100679734
1.2101855399
1.2102956866
1.2104202876
1.2105957438
1.2108524202
1.2112155314
1.2117036232
1.2123286420
1.2130958979
1.2140034822
1.2150420234
1.2161946545
1.2174374635
1.2187403119
1.2200679185
1.2213817487
1.2226418381
1.2238084826
1.2248444861
1.2257167481
1.2263972696
1.2268645234
1.2271040345
1.2266480372
1.1574108663
1.1570367363
1.1572302446
1.1576160064
1.1581890387
1.1589418574
1.1598641550
1.1609421415
1.1621586898
1.1634930146
1.1649205390
1.1664141783
1.1679456973
1.1694872049
1.1710156713
1.1725182154
1.1739982666
1.1754859680
1.1770469843
1.1787838831
1.1808214463
1.1832469804
1.1859875353
1.1890248080
1.1928433684
1.1967309960
1.2002029509
1.2030640750
1.2052804851
1.2069130603
1.2080613659
1.2088324926
1.2093239277
1.2096189218
1.2097892466
1.2099094166
1.2100224571
1.2101478953
1.2103230810
1.2105786555
1.2109393756
1.2114238324