<VTKFile type="UnstructuredGrid" version="0.1">
	<UnstructuredGrid>
		<Piece NumberOfPoints="13548" NumberOfCells="3387">
			<CellData>
				<DataArray type="Int32" Name="ghost" NumberOfComponents="1" Format="ascii">
1
1
1
1
1
1
1
1
1
1
1
1
1
1
1
1
1
1
1
1
1
1
1
1
1
1
1
1
1
1
1
1
1
1
1
1
1
1
1
1
1
1
1
1
1
1
1
1
1
1
1
1
1
1
1
1
1
1
0
0
0
0
0
0
0
0
0
0
0
0
0
0
0
0
0
0
0
0
1
1
0
0
0
0
0
0
0
0
0
0
0
0
0
0
0
0
0
0
0
0
0
0
0
0
0
0
0
0
0
0
0
0
0
1
1
0
0
0
0
0
0
0
0
0
0
0
0
0
0
0
0
0
0
0
0
1
1
0
0
0
0
0
0
0
0
0
0
0
0
0
0
0
0
0
0
0
0
0
0
0
0
0
0
0
0
0
0
0
0
0
1
1
0
0
0
0
0
0
0
0
0
0
0
0
0
0
0
0
0
0
0
0
1
1
0
0
0
0
0
0
0
0
0
0
0
0
0
0
0
0
0
0
0
0
0
0
0
0
0
0
0
0
0
0
0
0
0
1
1
0
0
0
0
0
0
0
0
0
0
0
0
0
0
0
0
0
0
0
0
1
1
0
0
0
0
0
0
0
0
0
0
0
0
0
0
0
0
0
0
0
0
0
0
0
0
0
0
0
0
0
0
0
0
0
1
1
0
0
0
0
0
0
0
0
0
0
0
0
0
0
0
0
0
0
0
0
1
1
0
0
0
0
0
0
0
0
0
0
0
0
0
0
0
0
0
0
0
0
0
0
0
0
0
0
0
0
0
0
0
0
0
1
1
0
0
0
0
0
0
0
0
0
0
0
0
0
0
0
0
0
0
0
0
1
1
0
0
0
0
0
0
0
0
0
0
0
0
0
0
0
0
0
0
0
0
0
0
0
0
0
0
0
0
0
0
0
0
0
1
1
0
0
0
0
0
0
0
0
0
0
0
0
0
0
0
0
0
0
0
0
1
1
0
0
0
0
0
0
0
0
0
0
0
0
0
0
0
0
0
0
0
0
0
0
0
0
0
0
0
0
0
0
0
0
0
1
1
0
0
0
0
0
0
0
0
0
0
0
0
0
0
0
0
0
0
0
0
1
1
0
0
0
0
0
0
0
0
0
0
0
0
0
0
0
0
0
0
0
0
0
0
0
0
0
0
0
0
0
0
0
0
0
1
1
0
0
0
0
0
0
0
0
0
0
0
0
0
0
0
0
0
0
0
0
1
1
0
0
0
0
0
0
0
0
0
0
0
0
0
0
0
0
0
0
0
0
0
0
0
0
0
0
0
0
0
0
0
0
0
1
1
0
0
0
0
0
0
0
0
0
0
0
0
0
0
0
0
0
0
0
0
1
1
0
0
0
0
0
0
0
0
0
0
0
0
0
0
0
0
0
0
0
0
0
0
0
0
0
0
0
0
0
0
0
0
0
1
1
0
0
0
0
0
0
0
0
0
0
0
0
0
0
0
0
0
0
0
0
1
1
0
0
0
0
0
0
0
0
0
0
0
0
0
0
0
0
0
0
0
0
0
0
0
0
0
0
0
0
0
0
0
0
0
1
1
0
0
0
0
0
0
0
0
0
0
0
0
0
0
0
0
0
0
0
0
1
1
0
0
0
0
0
0
0
0
0
0
0
0
0
0
0
0
0
0
0
0
0
0
0
0
0
0
0
0
0
0
0
0
0
1
1
0
0
0
0
0
0
0
0
0
0
0
0
0
0
0
0
0
0
0
0
1
1
0
0
0
0
0
0
0
0
0
0
0
0
0
0
0
0
0
0
0
0
0
0
0
0
0
0
0
0
0
0
0
0
0
1
1
0
0
0
0
0
0
0
0
0
0
0
0
0
0
0
0
0
0
0
0
1
1
0
0
0
0
0
0
0
0
0
0
0
0
0
0
0
0
0
0
0
0
0
0
0
0
0
0
0
0
0
0
0
0
0
1
1
0
0
0
0
0
0
0
0
0
0
0
0
0
0
0
0
0
0
0
0
1
1
0
0
0
0
0
0
0
0
0
0
0
0
0
0
0
0
0
0
0
0
0
0
0
0
0
0
0
0
0
0
0
0
0
1
1
0
0
0
0
0
0
0
0
0
0
0
0
0
0
0
0
0
0
0
0
1
1
0
0
0
0
0
0
0
0
0
0
0
0
0
0
0
0
0
0
0
0
0
0
0
0
0
0
0
0
0
0
0
0
0
1
1
0
0
0
0
0
0
0
0
0
0
0
0
0
0
0
0
0
0
0
0
1
1
0
0
0
0
0
0
0
0
0
0
0
0
0
0
0
0
0
0
0
0
0
0
0
0
0
0
0
0
0
0
0
0
0
1
1
0
0
0
0
0
0
0
0
0
0
0
0
0
0
0
0
0
0
0
0
1
1
0
0
0
0
0
0
0
0
0
0
0
0
0
0
0
0
0
0
0
0
0
0
0
0
0
0
0
0
0
0
0
0
0
1
1
0
0
0
0
0
0
0
0
0
0
0
0
0
0
0
0
0
0
0
0
1
1
0
0
0
0
0
0
0
0
0
0
0
0
0
0
0
0
0
0
0
0
0
0
0
0
0
0
0
0
0
0
0
0
0
1
1
0
0
0
0
0
0
0
0
0
0
0
0
0
0
0
0
0
0
0
0
1
1
0
0
0
0
0
0
0
0
0
0
0
0
0
0
0
0
0
0
0
0
0
0
0
0
0
0
0
0
0
0
0
0
0
1
1
0
0
0
0
0
0
0
0
0
0
0
0
0
0
0
0
0
0
0
0
1
1
0
0
0
0
0
0
0
0
0
0
0
0
0
0
0
0
0
0
0
0
0
0
0
0
0
0
0
0
0
0
0
0
0
1
1
0
0
0
0
0
0
0
0
0
0
0
0
0
0
0
0
0
0
0
0
1
1
0
0
0
0
0
0
0
0
0
0
0
0
0
0
0
0
0
0
0
0
0
0
0
0
0
0
0
0
0
0
0
0
0
1
1
0
0
0
0
0
0
0
0
0
0
0
0
0
0
0
0
0
0
0
0
1
1
0
0
0
0
0
0
0
0
0
0
0
0
0
0
0
0
0
0
0
0
0
0
0
0
0
0
0
0
0
0
0
0
0
1
1
0
0
0
0
0
0
0
0
0
0
0
0
0
0
0
0
0
0
0
0
1
1
0
0
0
0
0
0
0
0
0
0
0
0
0
0
0
0
0
0
0
0
0
0
0
0
0
0
0
0
0
0
0
0
0
1
1
0
0
0
0
0
0
0
0
0
0
0
0
0
0
0
0
0
0
0
0
0
1
1
0
0
0
0
0
0
0
0
0
0
0
0
0
0
0
0
0
0
0
0
0
0
0
0
0
0
0
0
0
0
0
0
0
0
1
1
0
0
0
0
0
0
0
0
0
0
0
0
0
0
0
0
0
0
0
0
0
0
0
0
0
0
0
0
0
0
0
0
0
0
0
0
0
0
0
0
0
0
0
0
0
0
0
0
0
0
0
0
0
0
0
0
0
1
1
0
0
0
0
0
0
0
0
0
0
0
0
0
0
0
0
0
0
0
0
0
0
0
0
0
0
0
0
0
0
0
0
0
0
0
0
0
0
0
0
0
0
0
0
0
0
0
0
0
0
0
0
0
0
0
0
0
1
1
0
0
0
0
0
0
0
0
0
0
0
0
0
0
0
0
0
0
0
0
0
0
0
0
0
0
0
0
0
0
0
0
0
0
0
0
0
0
0
0
0
0
0
0
0
0
0
0
0
0
0
0
0
0
0
0
0
1
1
0
0
0
0
0
0
0
0
0
0
0
0
0
0
0
0
0
0
0
0
0
0
0
0
0
0
0
0
0
0
0
0
0
0
0
0
0
0
0
0
0
0
0
0
0
0
0
0
0
0
0
0
0
0
0
0
0
1
1
0
0
0
0
0
0
0
0
0
0
0
0
0
0
0
0
0
0
0
0
0
0
0
0
0
0
0
0
0
0
0
0
0
0
0
0
0
0
0
0
0
0
0
0
0
0
0
0
0
0
0
0
0
0
0
0
0
1
1
0
0
0
0
0
0
0
0
0
0
0
0
0
0
0
0
0
0
0
0
0
0
0
0
0
0
0
0
0
0
0
0
0
0
0
0
0
0
0
0
0
0
0
0
0
0
0
0
0
0
0
0
0
0
0
0
0
1
1
0
0
0
0
0
0
0
0
0
0
0
0
0
0
0
0
0
0
0
0
0
0
0
0
0
0
0
0
0
0
0
0
0
0
0
0
0
0
0
0
0
0
0
0
0
0
0
0
0
0
0
0
0
0
0
0
0
1
1
0
0
0
0
0
0
0
0
0
0
0
0
0
0
0
0
0
0
0
0
0
0
0
0
0
0
0
0
0
0
0
0
0
0
0
0
0
0
0
0
0
0
0
0
0
0
0
0
0
0
0
0
0
0
0
0
0
1
1
0
0
0
0
0
0
0
0
0
0
0
0
0
0
0
0
0
0
0
0
0
0
0
0
0
0
0
0
0
0
0
0
0
0
0
0
0
0
0
0
0
0
0
0
0
0
0
0
0
0
0
0
0
0
0
0
0
1
1
0
0
0
0
0
0
0
0
0
0
0
0
0
0
0
0
0
0
0
0
0
0
0
0
0
0
0
0
0
0
0
0
0
0
0
0
0
0
0
0
0
0
0
0
0
0
0
0
0
0
0
0
0
0
0
0
0
1
1
0
0
0
0
0
0
0
0
0
0
0
0
0
0
0
0
0
0
0
0
0
1
1
0
0
0
0
0
0
0
0
0
0
0
0
0
0
0
0
0
0
0
0
0
0
0
0
0
0
0
0
0
0
0
0
0
0
1
1
0
0
0
0
0
0
0
0
0
0
0
0
0
0
0
0
0
0
0
0
1
1
0
0
0
0
0
0
0
0
0
0
0
0
0
0
0
0
0
0
0
0
0
0
0
0
0
0
0
0
0
0
0
0
0
1
1
0
0
0
0
0
0
0
0
0
0
0
0
0
0
0
0
0
0
0
0
1
1
0
0
0
0
0
0
0
0
0
0
0
0
0
0
0
0
0
0
0
0
0
0
0
0
0
0
0
0
0
0
0
0
0
1
1
0
0
0
0
0
0
0
0
0
0
0
0
0
0
0
0
0
0
0
0
1
1
0
0
0
0
0
0
0
0
0
0
0
0
0
0
0
0
0
0
0
0
0
0
0
0
0
0
0
0
0
0
0
0
0
1
1
0
0
0
0
0
0
0
0
0
0
0
0
0
0
0
0
0
0
0
0
1
1
0
0
0
0
0
0
0
0
0
0
0
0
0
0
0
0
0
0
0
0
0
0
0
0
0
0
0
0
0
0
0
0
0
1
1
0
0
0
0
0
0
0
0
0
0
0
0
0
0
0
0
0
0
0
0
1
1
0
0
0
0
0
0
0
0
0
0
0
0
0
0
0
0
0
0
0
0
0
0
0
0
0
0
0
0
0
0
0
0
0
1
1
0
0
0
0
0
0
0
0
0
0
0
0
0
0
0
0
0
0
0
0
1
1
0
0
0
0
0
0
0
0
0
0
0
0
0
0
0
0
0
0
0
0
0
0
0
0
0
0
0
0
0
0
0
0
0
1
1
0
0
0
0
0
0
0
0
0
0
0
0
0
0
0
0
0
0
0
0
1
1
0
0
0
0
0
0
0
0
0
0
0
0
0
0
0
0
0
0
0
0
0
0
0
0
0
0
0
0
0
0
0
0
0
1
1
0
0
0
0
0
0
0
0
0
0
0
0
0
0
0
0
0
0
0
0
1
1
0
0
0
0
0
0
0
0
0
0
0
0
0
0
0
0
0
0
0
0
0
0
0
0
0
0
0
0
0
0
0
0
0
1
1
0
0
0
0
0
0
0
0
0
0
0
0
0
0
0
0
0
0
0
0
1
1
0
0
0
0
0
0
0
0
0
0
0
0
0
0
0
0
0
0
0
0
0
0
0
0
0
0
0
0
0
0
0
0
0
1
1
0
0
0
0
0
0
0
0
0
0
0
0
0
0
0
0
0
0
0
0
1
1
0
0
0
0
0
0
0
0
0
0
0
0
0
0
0
0
0
0
0
0
0
0
0
0
0
0
0
0
0
0
0
0
0
1
1
0
0
0
0
0
0
0
0
0
0
0
0
0
0
0
0
0
0
0
0
1
1
0
0
0
0
0
0
0
0
0
0
0
0
0
0
0
0
0
0
0
0
0
0
0
0
0
0
0
0
0
0
0
0
0
1
1
0
0
0
0
0
0
0
0
0
0
0
0
0
0
0
0
0
0
0
0
1
1
0
0
0
0
0
0
0
0
0
0
0
0
0
0
0
0
0
0
0
0
0
0
0
0
0
0
0
0
0
0
0
0
0
1
1
0
0
0
0
0
0
0
0
0
0
0
0
0
0
0
0
0
0
0
0
1
1
0
0
0
0
0
0
0
0
0
0
0
0
0
0
0
0
0
0
0
0
0
0
0
0
0
0
0
0
0
0
0
0
0
1
1
0
0
0
0
0
0
0
0
0
0
0
0
0
0
0
0
0
0
0
0
1
1
0
0
0
0
0
0
0
0
0
0
0
0
0
0
0
0
0
0
0
0
0
0
0
0
0
0
0
0
0
0
0
0
0
1
1
0
0
0
0
0
0
0
0
0
0
0
0
0
0
0
0
0
0
0
0
1
1
0
0
0
0
0
0
0
0
0
0
0
0
0
0
0
0
0
0
0
0
0
0
0
0
0
0
0
0
0
0
0
0
0
1
1
0
0
0
0
0
0
0
0
0
0
0
0
0
0
0
0
0
0
0
0
1
1
0
0
0
0
0
0
0
0
0
0
0
0
0
0
0
0
0
0
0
0
0
0
0
0
0
0
0
0
0
0
0
0
0
1
1
0
0
0
0
0
0
0
0
0
0
0
0
0
0
0
0
0
0
0
0
1
1
0
0
0
0
0
0
0
0
0
0
0
0
0
0
0
0
0
0
0
0
0
0
0
0
0
0
0
0
0
0
0
0
0
1
1
0
0
0
0
0
0
0
0
0
0
0
0
0
0
0
0
0
0
0
0
1
1
0
0
0
0
0
0
0
0
0
0
0
0
0
0
0
0
0
0
0
0
0
0
0
0
0
0
0
0
0
0
0
0
0
1
1
0
0
0
0
0
0
0
0
0
0
0
0
0
0
0
0
0
0
0
0
1
1
0
0
0
0
0
0
0
0
0
0
0
0
0
0
0
0
0
0
0
0
0
0
0
0
0
0
0
0
0
0
0
0
0
1
1
0
0
0
0
0
0
0
0
0
0
0
0
0
0
0
0
0
0
0
0
1
1
0
0
0
0
0
0
0
0
0
0
0
0
0
0
0
0
0
0
0
0
0
0
0
0
0
0
0
0
0
0
0
0
0
1
1
0
0
0
0
0
0
0
0
0
0
0
0
0
0
0
0
0
0
0
0
1
1
0
0
0
0
0
0
0
0
0
0
0
0
0
0
0
0
0
0
0
0
0
0
0
0
0
0
0
0
0
0
0
0
0
1
1
1
1
1
1
1
1
1
1
1
1
1
1
1
1
1
1
1
1
1
1
1
1
1
1
1
1
1
1
1
1
1
1
1
1
1
1
1
1
1
1
1
1
1
1
1
1
1
1
1
1
1
1
1
1
1
1
				</DataArray>
				<DataArray type="Float64" Name="h" NumberOfComponents="1" Format="ascii">
1.2865790148
1.2837548869
1.2834348201
1.2828037033
1.2818903471
1.2807361992
1.2793931943
1.2779210043
1.2763828203
1.2748415293
1.2733556031
1.2719749770
1.2707382664
1.2696706696
1.2687834946
1.2680754145
1.2675344489
1.2671415740
1.2668748128
1.2667127821
1.2666387001
1.2666387001
1.1012847315
1.1003834608
1.1006135041
1.1010832130
1.1018174587
1.1028554621
1.1042524570
1.1060813688
1.1084327269
1.1114122281
1.1151350493
1.1197149517
1.1252479272
1.1317914197
1.1393411918
1.1478100777
1.1570160439
1.1666865915
1.1764815572
1.1860340820
1.1950057254
1.2031216753
1.2101982109
1.2161722309
1.2210725624
1.2249948181
1.2280698686
1.2304385042
1.2322333251
1.2335687978
1.2345368148
1.2352069041
1.2356280028
1.2358308662
1.2358308662
1.2837548869
1.2809202415
1.2806634459
1.2801553246
1.2794190989
1.2784884748
1.2774060086
1.2762209753
1.2749857884
1.2737527774
1.2725706534
1.2714808605
1.2705150811
1.2696932732
1.2690231629
1.2685012882
1.2681147057
1.2678442966
1.2676685213
1.2675666620
1.2675225679
1.2666387001
1.1003834608
1.0994813485
1.0997317522
1.1002444159
1.1010482617
1.1021882630
1.1037267067
1.1057439409
1.1083371340
1.1116162059
1.1156960691
1.1206835193
1.1266588150
1.1336537325
1.1416292115
1.1504574307
1.1599160795
1.1697009975
1.1794567995
1.1888274373
1.1974950605
1.2052161531
1.2118654679
1.2174200212
1.2219397999
1.2255366897
1.2283472062
1.2305093103
1.2321485416
1.2333704978
1.2342585287
1.2348749232
1.2352631613
1.2354504226
1.2358308662
1.2838481163
1.2810318591
1.2807787550
1.2802778071
1.2795517647
1.2786336476
1.2775651448
1.2763945317
1.2751731620
1.2739523280
1.2727798228
1.2716963912
1.2707333210
1.2699105439
1.2692361507
1.2687074088
1.2683123951
1.2680331827
1.2678494503
1.2677415725
1.2676942235
1.2668437177
1.1001055611
1.0992099493
1.0994657086
1.0999892672
1.1008096730
1.1019718121
1.1035378379
1.1055874791
1.1082164676
1.1115322251
1.1156459132
1.1206593595
1.1266470472
1.1336351022
1.1415803599
1.1503540722
1.1597374732
1.1694346480
1.1791019078
1.1883946293
1.1970077029
1.2047031900
1.2113550339
1.2169372007
1.2215020745
1.2251542870
1.2280233429
1.2302420652
1.2319322663
1.2331975114
1.2341201333
1.2347622037
1.2351673495
1.2353630035
1.2357243807
1.2840236236
1.2812428167
1.2809969987
1.2805102077
1.2798042623
1.2789108314
1.2778698944
1.2767277588
1.2755336927
1.2743369492
1.2731835206
1.2721127838
1.2711552593
1.2703308341
1.2696483175
1.2691064039
1.2686951582
1.2683989714
1.2681998857
1.2680803919
1.2680267609
1.2672424259
1.0995553137
1.0986727711
1.0989392313
1.0994845730
1.1003380561
1.1015444743
1.1031655277
1.1052797022
1.1079798974
1.1113686051
1.1155496264
1.1206150903
1.1266282554
1.1336042978
1.1414920928
1.1501610104
1.1593989205
1.1689255063
1.1784193346
1.1875577928
1.1960609408
1.2036997382
1.2103515659
1.2159819954
1.2206308465
1.2243880140
1.2273699551
1.2296987558
1.2314889917
1.2328396400
1.2338309093
1.2345241297
1.2349630569
1.2351755109
1.2354974504
1.2842661446
1.2815351968
1.2813000290
1.2808339251
1.2801573429
1.2792999762
1.2782993076
1.2771987728
1.2760446006
1.2748830809
1.2737575978
1.2727055602
1.2717563982
1.2709299562
1.2702360996
1.2696755890
1.2692413494
1.2689210889
1.2687002218
1.2685642496
1.2685017098
1.2678155039
1.0987431040
1.0978803524
1.0981628444
1.0987407909
1.0996437082
1.1009162906
1.1026192608
1.1048290715
1.1076344125
1.1111305326
1.1154105131
1.1205524917
1.1266036721
1.1335636830
1.1413701534
1.1498897527
1.1589195050
1.1682006927
1.1774428348
1.1863556675
1.1946902564
1.2022370567
1.2088773353
1.2145665443
1.2193278135
1.2232307470
1.2263726024
1.2288598986
1.2307957304
1.2322720069
1.2333649924
1.2341344990
1.2346240362
1.2348617165
1.2351212415
1.2845525891
1.2818821741
1.2816607112
1.2812212149
1.2805823893
1.2797713843
1.2788224725
1.2777754049
1.2766725230
1.2755563404
1.2744669370
1.2734392482
1.2725013582
1.2716730950
1.2709656867
1.2703825106
1.2699200803
1.2695702411
1.2693225918
1.2691663558
1.2690928650
1.2685353246
1.0976826960
1.0968466971
1.0971505690
1.0977718604
1.0987403289
1.1001005201
1.1019115420
1.1042467980
1.1071892948
1.1108248794
1.1152329207
1.1204738776
1.1265749071
1.1335164370
1.1412223305
1.1495559419
1.1583252576
1.1672974337
1.1762192070
1.1848415764
1.1929474712
1.2003618057
1.2069666102
1.2127114596
1.2175988467
1.2216749554
1.2250127590
1.2276984495
1.2298197617
1.2314581298
1.2326838584
1.2335537478
1.2341102856
1.2343814820
1.2345519135
1.2848520214
1.2822482519
1.2820431972
1.2816355351
1.2810418644
1.2802862888
1.2793992465
1.2784161040
1.2773745972
1.2763127907
1.2752668991
1.2742689947
1.2733456349
1.2725166755
1.2717949638
1.2711869237
1.2706932030
1.2703103768
1.2700327995
1.2698539041
1.2697681708
1.2693677213
1.0963893478
1.0955873584
1.0959179968
1.0965933311
1.0976432565
1.0991119325
1.1010562105
1.1035452408
1.1066547627
1.1104591426
1.1150214782
1.1203815962
1.1265436008
1.1334661513
1.1410577040
1.1491779370
1.1576468628
1.1662599227
1.1748046541
1.1830778436
1.1909008569
1.1981330163
1.2046675826
1.2104471644
1.2154568139
1.2197159075
1.2232706650
1.2261827495
1.2285203800
1.2303513259
1.2317369202
1.2327290330
1.2333677786
1.2336802655
1.2337305158
1.2851263198
1.2825902456
1.2824039464
1.2820326409
1.2814905178
1.2807982039
1.2799817796
1.2790716545
1.2781003883
1.2771010799
1.2761056673
1.2751430901
1.2742382693
1.2734111378
1.2726763457
1.2720436431
1.2715181406
1.2711014763
1.2707930591
1.2705907680
1.2704923934
1.2702745826
1.0948774586
1.0941169901
1.0944798687
1.0952200411
1.0963672059
1.0979647073
1.1000663998
1.1027360144
1.1060402097
1.1100399558
1.1147799186
1.1202771209
1.1265106557
1.1334159701
1.1408853684
1.1487747681
1.1569165840
1.1651351873
1.1732598889
1.1811349222
1.1886257937
1.1956216016
1.2020379012
1.2078163425
1.2129233040
1.2173550406
1.2211289433
1.2242792842
1.2268517878
1.2288965247
1.2304628371
1.2315949558
1.2323287284
1.2326891972
1.2325836526
1.2853307730
1.2828582637
1.2826927410
1.2823616693
1.2818765719
1.2812542466
1.2805160001
1.2796868476
1.2787937563
1.2778645037
1.2769264870
1.2760053564
1.2751243438
1.2743034925
1.2735593438
1.2729050796
1.2723503648
1.2719019553
1.2715643257
1.2713397758
1.2712293642
1.2712160744
1.0931575039
1.0924462501
1.0928471179
1.0936632852
1.0949236058
1.0966700394
1.0989524882
1.1018281445
1.1053527708
1.1095720107
1.1145104197
1.1201607768
1.1264762065
1.1333685591
1.1407140635
1.1483650587
1.1561661759
1.1639698747
1.1716459581
1.1790851493
1.1861974480
1.1929071280
1.1991496406
1.2048714368
1.2100313140
1.2146030251
1.2185764236
1.2219577176
1.2247670447
1.2270340107
1.2287924429
1.2300759069
1.2309135938
1.2313268482
1.2310262480
1.2854157774
1.2829978102
1.2828548078
1.2825672999
1.2821439432
1.2815974370
1.2809440102
1.2802029834
1.2793954670
1.2785437133
1.2776704488
1.2767979709
1.2759478053
1.2751401020
1.2743932671
1.2737238343
1.2731458699
1.2726710219
1.2723085549
1.2720648991
1.2719441335
1.2721528388
1.0912330088
1.0905788843
1.0910240980
1.0919280808
1.0933182270
1.0952335077
1.0977199046
1.1008262600
1.1045958185
1.1090569135
1.1142127441
1.1200311320
1.1264391449
1.1333255503
1.1405512637
1.1479654574
1.1554243945
1.1628066932
1.1700196624
1.1769974459
1.1836927109
1.1900654275
1.1960750542
1.2016778623
1.2068283711
1.2114845674
1.2156137090
1.2191955262
1.2222237463
1.2247047628
1.2266538586
1.2280908278
1.2290354849
1.2295035784
1.2289673010
1.2853296593
1.2829530276
1.2828340746
1.2825930380
1.2822355637
1.2817700689
1.2812075122
1.2805613507
1.2798467148
1.2790802615
1.2782800266
1.2774649598
1.2766548738
1.2758699664
1.2751303594
1.2744556739
1.2738639897
1.2733713572
1.2729912781
1.2727337633
1.2726054512
1.2730486250
1.0890974173
1.0885085884
1.0890053340
1.0900108003
1.0915488962
1.0936542070
1.0963666838
1.0997279409
1.1037672048
1.1084917679
1.1138830541
1.1198839553
1.1263961220
1.1332864309
1.1404017421
1.1475886472
1.1547142293
1.1616806881
1.1684287923
1.1749315924
1.1811808694
1.1871710264
1.1928872623
1.1983002006
1.2033665313
1.2080352124
1.2122557198
1.2159848721
1.2191916065
1.2218586092
1.2239806013
1.2255609768
1.2266076504
1.2271287736
1.2263185096
1.2850217636
1.2826701327
1.2825766009
1.2823846345
1.2820967831
1.2817170835
1.2812511383
1.2807064939
1.2800922982
1.2794196529
1.2787019652
1.2779548830
1.2771964903
1.2764469115
1.2757277192
1.2750611945
1.2744688405
1.2739703836
1.2735827563
1.2733187392
1.2731868384
1.2738715858
1.0867301208
1.0862152468
1.0867716813
1.0878941221
1.0896016828
1.0919222186
1.0948864435
1.0985247991
1.1028557314
1.1078683720
1.1135134582
1.1197119201
1.1263412958
1.1332482103
1.1402670175
1.1472424249
1.1540514574
1.1606170938
1.1669090982
1.1729341954
1.1787186120
1.1842884265
1.1896546606
1.1948054188
1.1997051351
1.2043005578
1.2085300969
1.2123329050
1.2156564408
1.2184609856
1.2207202924
1.2224198792
1.2235539083
1.2241213128
1.2230061040
1.2844464773
1.2821016646
1.2820348015
1.2818942586
1.2816794624
1.2813900543
1.2810262945
1.2805898771
1.2800840666
1.2795145314
1.2788901679
1.2782233886
1.2775305156
1.2768314245
1.2761487872
1.2755069998
1.2749302488
1.2744410244
1.2740586516
1.2737975968
1.2736672559
1.2745951801
1.0840934848
1.0836622052
1.0842883064
1.0855463547
1.0874484152
1.0900128362
1.0932591625
1.0972044873
1.1018503429
1.1071701366
1.1130915077
1.1195040810
1.1262656680
1.1332045789
1.1401443186
1.1469284584
1.1534431575
1.1596295040
1.1654819283
1.1710355540
1.1763459351
1.1814670637
1.1864343634
1.1912548513
1.1959048485
1.2003349834
1.2044794786
1.2082662835
1.2116264868
1.2145012333
1.2168448163
1.2186249986
1.2198215028
1.2204231625
1.2189855290
1.2835676975
1.2812110509
1.2811719848
1.2810849778
1.2809463647
1.2807514539
1.2804952651
1.2801737875
1.2797845783
1.2793280518
1.2788087439
1.2782359051
1.2776240491
1.2769926006
1.2763649445
1.2757670039
1.2752248416
1.2747626830
1.2744010060
1.2741545638
1.2740322554
1.2751995812
1.0811296923
1.0807931697
1.0815021264
1.0829196420
1.0850470920
1.0878899182
1.0914534580
1.0957393259
1.1007312534
1.1063813331
1.1125994757
1.1192450024
1.1261559928
1.1331446149
1.1400251721
1.1466408559
1.1528863192
1.1587184838
1.1641526702
1.1692476263
1.1740832819
1.1787373580
1.1832671587
1.1876984265
1.1920217490
1.1961962897
1.2001582657
1.2038311215
1.2071357885
1.2099992700
1.2123598538
1.2141695254
1.2153944117
1.2160134163
1.2142552463
1.2823625824
1.2799762623
1.2799659628
1.2799342785
1.2798745379
1.2797778490
1.2796341690
1.2794340006
1.2791694244
1.2788358145
1.2784335124
1.2779686838
1.2774539924
1.2769082324
1.2763551622
1.2758217105
1.2753350700
1.2749201684
1.2745972427
1.2743795381
1.2742734151
1.2756713433
1.0777561903
1.0775277572
1.0783382947
1.0799476784
1.0823408559
1.0855055351
1.0894289179
1.0940956923
1.0994690366
1.1054800710
1.1120164713
1.1189154770
1.1259951770
1.1330530164
1.1398955969
1.1463664895
1.1523684392
1.1578724799
1.1629118614
1.1675650567
1.1719320684
1.1761102981
1.1801758446
1.1841717394
1.1881035089
1.1919417394
1.1956294450
1.1990916179
1.2022454786
1.2050099093
1.2073121993
1.2090922729
1.2103050988
1.2109210177
1.2088678660
1.2808249158
1.2783929630
1.2784121575
1.2784370821
1.2784581941
1.2784625965
1.2784354243
1.2783619646
1.2782290869
1.2780273528
1.2777530789
1.2774094302
1.2770072124
1.2765644956
1.2761052288
1.2756570509
1.2752477949
1.2749022449
1.2746389547
1.2744673597
1.2743881175
1.2760033163
1.0738610594
1.0737568439
1.0746973487
1.0765451683
1.0792590877
1.0828021342
1.0871395293
1.0922352181
1.0980317207
1.1044395117
1.1113184354
1.1184938026
1.1257632510
1.1329108383
1.1397368609
1.1460860333
1.1518690640
1.1570699962
1.1617379704
1.1659683456
1.1698778480
1.1735800853
1.1771668353
1.1806962548
1.1841881340
1.1876256528
1.1909617189
1.1941276109
1.1970426430
1.1996237224
1.2017929342
1.2034830495
1.2046415934
1.2052327685
1.2029351186
1.2789673902
1.2764765190
1.2765255896
1.2766076935
1.2767105958
1.2768176411
1.2769094303
1.2769663390
1.2769703024
1.2769072891
1.2767697463
1.2765579258
1.2762808224
1.2759558415
1.2756072264
1.2752634717
1.2749531198
1.2747005039
1.2745212700
1.2744181527
1.2743810057
1.2761961978
1.0692967887
1.0693361219
1.0704525973
1.0726091645
1.0757217439
1.0797181003
1.0845383863
1.0901215025
1.0963908041
1.1032286028
1.1104810128
1.1179580372
1.1254391810
1.1326971338
1.1395272331
1.1457761252
1.1513626120
1.1562832288
1.1606018618
1.1644289921
1.1678957916
1.1711294401
1.1742346750
1.1772824161
1.1803052066
1.1832986186
1.1862268787
1.1890306429
1.1916358106
1.1939626993
1.1959338262
1.1974800584
1.1985458098
1.1990921985
1.1966226829
1.2768219841
1.2742620422
1.2743409066
1.2744797973
1.2746640014
1.2748733906
1.2750843486
1.2752726537
1.2754155674
1.2754946464
1.2754985791
1.2754247700
1.2752805031
1.2750827764
1.2748566532
1.2746323487
1.2744402180
1.2743050309
1.2742391895
1.2742354319
1.2742644939
1.2762590773
1.0638688177
1.0640745964
1.0654467122
1.0680227130
1.0716471965
1.0761988902
1.0815867863
1.0877307904
1.0945188437
1.1018277769
1.1094879459
1.1172921549
1.1250064463
1.1323942424
1.1392472945
1.1454149820
1.1508245260
1.1554849186
1.1594744089
1.1629177965
1.1659594473
1.1687384087
1.1713703103
1.1739366902
1.1764810042
1.1790101149
1.1814996202
1.1839009945
1.1861495486
1.1881729655
1.1898988006
1.1912606834
1.1922040408
1.1926899805
1.1901366263
1.2744392382
1.2718034044
1.2719114051
1.2721054991
1.2723687344
1.2726778163
1.2730052361
1.2733224702
1.2736023149
1.2738220090
1.2739664884
1.2740302858
1.2740190594
1.2739498282
1.2738495073
1.2737519308
1.2736921035
1.2736985221
1.2737824883
1.2739242076
1.2740622676
1.2762128839
1.0573165356
1.0577150470
1.0594886731
1.0626636748
1.0669679086
1.0722074757
1.0782744555
1.0850472494
1.0924171505
1.1002416553
1.1083401302
1.1164943798
1.1244604758
1.1319948227
1.1388868996
1.1449895600
1.1502388513
1.1546565008
1.1583352957
1.1614142972
1.1640506704
1.1663944821
1.1685709142
1.1706704354
1.1727456286
1.1748131004
1.1768589099
1.1788453852
1.1807183852
1.1824151566
1.1838712812
1.1850264940
1.1858304096
1.1862466210
1.1837031651
1.2718860750
1.2691708646
1.2693067028
1.2695530905
1.2698910868
1.2702945399
1.2707323535
1.2711719448
1.2715817532
1.2719346376
1.2722115800
1.2724039796
1.2725157526
1.2725643454
1.2725799655
1.2726032090
1.2726792014
1.2728479258
1.2731277342
1.2734886119
1.2738194025
1.2761004297
1.0492742111
1.0498932989
1.0523483461
1.0564114370
1.0616344410
1.0677503674
1.0746202720
1.0821189472
1.0901288348
1.0985054383
1.1070655382
1.1155859133
1.1238166634
1.1315094481
1.1384526223
1.1445030563
1.1496059405
1.1537961174
1.1571813906
1.1599155034
1.1621686280
1.1641016686
1.1658486646
1.1675078474
1.1691394095
1.1707680526
1.1723888270
1.1739739111
1.1754793969
1.1768525681
1.1780382145
1.1789838321
1.1796450037
1.1799893239
1.1775444782
1.2692421178
1.2664472428
1.2666089555
1.2669033610
1.2673097759
1.2677994816
1.2683380523
1.2688889976
1.2694163515
1.2698882840
1.2702812612
1.2705828033
1.2707943913
1.2709337874
1.2710358140
1.2711519834
1.2713464400
1.2716860353
1.2722176002
1.2729200351
1.2736202016
1.2760041221
1.0391741292
1.0400456679
1.0437574089
1.0492055479
1.0556780846
1.0629194905
1.0707455594
1.0790550333
1.0877495994
1.0966997409
1.1057305709
1.1146210430
1.1231195793
1.1309752082
1.1379759224
1.1439827549
1.1489500619
1.1529260491
1.1560340528
1.1584431041
1.1603369021
1.1618874125
1.1632372947
1.1644918129
1.1657175736
1.1669458157
1.1681788658
1.1693970971
1.1705654525
1.1716403149
1.1725752452
1.1733255202
1.1738530204
1.1741297735
1.1718575220
1.2665957468
1.2637239230
1.2639089182
1.2642457853
1.2647123289
1.2652775149
1.2659037771
1.2665507462
1.2671777951
1.2677477510
1.2682314532
1.2686109553
1.2688834093
1.2690652551
1.2691957293
1.2693409089
1.2695958173
1.2700807022
1.2709189949
1.2721661052
1.2736296898
1.2760872491
1.0260473753
1.0272057124
1.0333860833
1.0410253709
1.0492983492
1.0579439520
1.0668669347
1.0760462803
1.0854406832
1.0949582268
1.1044456293
1.1136916491
1.1224469601
1.1304593804
1.1375165738
1.1434832326
1.1483223884
1.1520954947
1.1549417118
1.1570458663
1.1586057186
1.1598046442
1.1607939041
1.1616853389
1.1625510356
1.1634273780
1.1643222225
1.1652221717
1.1660990055
1.1669163287
1.1676348703
1.1682164520
1.1686284085
1.1688467183
1.1667992335
1.2640395391
1.2610962474
1.2613014043
1.2616741281
1.2621909163
1.2628186251
1.2635166598
1.2642406724
1.2649448946
1.2655857559
1.2661266413
1.2665413087
1.2668186190
1.2669688489
1.2670309835
1.2670843751
1.2672648467
1.2677834263
1.2689346438
1.2710425320
1.2741853347
1.2766853698
1.0080202339
1.0095299906
1.0207989113
1.0320808364
1.0428644786
1.0532043387
1.0633166726
1.0733664438
1.0834236904
1.0934605501
1.1033581366
1.1129210063
1.1219043258
1.1300547141
1.1371584112
1.1430823804
1.1477971418
1.1513767248
1.1539759613
1.1557956372
1.1570478643
1.1579276433
1.1585948048
1.1591673986
1.1597222175
1.1602995659
1.1609111867
1.1615479127
1.1621861258
1.1627943460
1.1633382594
1.1637842835
1.1641036577
1.1642752519
1.1624792889
1.2616654767
1.2586586803
1.2588804877
1.2592817377
1.2598377990
1.2605135831
1.2612655232
1.2620451018
1.2628007592
1.2634811198
1.2640395469
1.2644371677
1.2646476491
1.2646647998
1.2645131803
1.2642692264
1.2641009767
1.2643399301
1.2656035817
1.2689614267
1.2759647444
1.2784731647
0.9799864537
0.9819771664
1.0053409916
1.0229601754
1.0370781327
1.0492881159
1.0605416820
1.0713517883
1.0819561587
1.0924095734
1.1026328811
1.1124470960
1.1216106799
1.1298668801
1.1369979894
1.1428708517
1.1474615216
1.1508552832
1.1532219072
1.1547777894
1.1557492500
1.1563428021
1.1567266196
1.1570245338
1.1573173251
1.1576481416
1.1580311532
1.1584595951
1.1589123246
1.1593604826
1.1597724082
1.1601169863
1.1603675873
1.1605047024
1.1589613449
1.2595608108
1.2565006341
1.2567353525
1.2571574550
1.2577413423
1.2584501336
1.2592373460
1.2600501134
1.2608304342
1.2615176242
1.2620520459
1.2623766411
1.2624398690
1.2622014764
1.2616414084
1.2607841175
1.2597609613
1.2589687995
1.2594872391
1.2641680976
1.2802942759
1.2827707767
0.9430472775
0.9452449054
0.9913210457
1.0166599648
1.0336952862
1.0471877343
1.0591224662
1.0703664677
1.0812869929
1.0919901840
1.1024169673
1.1123932477
1.1216736256
1.1299928928
1.1371253827
1.1429345599
1.1473994279
1.1506146169
1.1527635070
1.1540771755
1.1547954745
1.1551358833
1.1552743959
1.1553400472
1.1554168835
1.1555499510
1.1557546220
1.1560250093
1.1563406556
1.1566733539
1.1569920786
1.1572662764
1.1574698262
1.1575836539
1.1562707102
1.2578038791
1.2547021927
1.2549460106
1.2553813271
1.2559817380
1.2567087525
1.2575131176
1.2583376186
1.2591174680
1.2597816134
1.2602549274
1.2604567731
1.2602988854
1.2596819261
1.2584844675
1.2565434364
1.2536125579
1.2492536979
1.2425351418
1.2310977204
1.2079491093
1.1340613591
1.0255563601
1.0278022260
1.0281068395
1.0092346154
1.0152290948
1.0258692049
1.0372754941
1.0486037682
1.0597329689
1.0707094017
1.0815754653
1.0923079060
1.1027937653
1.1128324567
1.1221604566
1.1304966526
1.1376027216
1.1433352971
1.1476735843
1.1507193390
1.1526677574
1.1537631307
1.1542576482
1.1543787611
1.1543094492
1.1541832059
1.1540866051
1.1540657762
1.1541363309
1.1542921033
1.1545119794
1.1547669255
1.1550250209
1.1552548156
1.1554294378
1.1555293137
1.1544055145
1.2564605769
1.2533305116
1.2535796676
1.2540209004
1.2546271847
1.2553586797
1.2561636940
1.2569810386
1.2577395130
1.2583579755
1.2587458514
1.2587985645
1.2583903199
1.2573622064
1.2554951499
1.2524616239
1.2477340828
1.2403942020
1.2287404686
1.2094750463
1.1761126128
1.1124356314
1.0247490537
1.0274744308
1.0275474480
1.0215908795
1.0241820270
1.0314136865
1.0406779989
1.0508007743
1.0612871909
1.0719306969
1.0826276899
1.0932780825
1.1037286817
1.1137548924
1.1230745884
1.1313894586
1.1384468754
1.1440947665
1.1483105297
1.1512009801
1.1529710882
1.1538765229
1.1541801534
1.1541180436
1.1538790592
1.1536002786
1.1533700714
1.1532349751
1.1532101342
1.1532883151
1.1534468601
1.1536549362
1.1538787212
1.1540849001
1.1542450088
1.1543383361
1.1533483844
1.2555816294
1.2524370310
1.2526878875
1.2531282666
1.2537307372
1.2544544652
1.2552458687
1.2560405810
1.2567621470
1.2573210368
1.2576138079
1.2575161886
1.2568725087
1.2554794939
1.2530530408
1.2491743988
1.2432026554
1.2341246146
1.2203279192
1.1993288882
1.1677198337
1.1212625648
1.0687169583
1.0501917757
1.0407822904
1.0342946183
1.0337281354
1.0379001572
1.0450431209
1.0538714700
1.0636092864
1.0738231817
1.0842673254
1.0947636867
1.1051181298
1.1150823109
1.1243562575
1.1326251873
1.1396224035
1.1451866682
1.1492924146
1.1520496847
1.1536712028
1.1544217929
1.1545730902
1.1543680750
1.1540002523
1.1536093427
1.1532848211
1.1530731025
1.1529883863
1.1530218875
1.1531488903
1.1533362043
1.1535475224
1.1537471030
1.1539043860
1.1539971347
1.1530770244
1.2551999358
1.2520547536
1.2523038063
1.2527371168
1.2533270909
1.2540323425
1.2547981283
1.2555580360
1.2562321014
1.2567250806
1.2569247723
1.2566937506
1.2558572145
1.2541859760
1.2513637721
1.2469399142
1.2402648666
1.2304035078
1.2160596110
1.1956153276
1.1675448669
1.1314757971
1.0936150473
1.0698451556
1.0550134623
1.0460034778
1.0427881314
1.0444957921
1.0497738021
1.0573667705
1.0663435808
1.0760978985
1.0862576916
1.0965702958
1.1068016286
1.1166810022
1.1258926022
1.1341073723
1.1410462769
1.1465396780
1.1505585224
1.1532148632
1.1547268644
1.1553663182
1.1554112663
1.1551098537
1.1546588270
1.1541996503
1.1538222830
1.1535726158
1.1534635999
1.1534846149
1.1536086005
1.1537996935
1.1540187672
1.1542273162
1.1543923749
1.1544899241
1.1535722556
1.2553291877
1.2521969000
1.2524407561
1.2528612656
1.2534309305
1.2541083113
1.2548383489
1.2555539138
1.2561735832
1.2565995233
1.2567153914
1.2563775649
1.2554023554
1.2535500157
1.2504949902
1.2457869223
1.2388062658
1.2287241604
1.2145118406
1.1951022452
1.1698643065
1.1395382182
1.1083778687
1.0839690115
1.0666755753
1.0556505604
1.0504951960
1.0504179123
1.0542647869
1.0608395722
1.0691464581
1.0784735518
1.0883578513
1.0984870721
1.1085931542
1.1183860218
1.1275365091
1.1357040228
1.1425996680
1.1480466731
1.1520128971
1.1546110953
1.1560628875
1.1566442324
1.1566373674
1.1562935267
1.1558114588
1.1553334740
1.1549495236
1.1547046697
1.1546103929
1.1546540271
1.1548059340
1.1550273060
1.1552758898
1.1555101041
1.1556942777
1.1558023591
1.1548213569
1.2559631132
1.2528562240
1.2530915704
1.2534939014
1.2540360837
1.2546771551
1.2553626376
1.2560260748
1.2565867154
1.2569473364
1.2569919453
1.2565772441
1.2555189842
1.2535777829
1.2504319150
1.2456431830
1.2386197086
1.2286001098
1.2146951237
1.1960846350
1.1724750926
1.1448682088
1.1165781425
1.0924894801
1.0743523501
1.0623183496
1.0561089452
1.0550144280
1.0579868429
1.0638845155
1.0717036987
1.0806919853
1.0903427209
1.1003106001
1.1103060969
1.1200252589
1.1291287766
1.1372675457
1.1441455394
1.1495802771
1.1535379602
1.1561304602