<VTKFile type="UnstructuredGrid" version="0.1">
	<UnstructuredGrid>
		<Piece NumberOfPoints="13548" NumberOfCells="3387">
			<CellData>
				<DataArray type="Int32" Name="ghost" NumberOfComponents="1" Format="ascii">
1
1
1
1
1
1
1
1
1
1
1
1
1
1
1
1
1
1
1
1
1
1
1
1
1
1
1
1
1
1
1
1
1
1
1
1
1
1
1
1
1
1
1
1
1
1
1
1
1
1
1
1
1
1
1
1
1
1
0
0
0
0
0
0
0
0
0
0
0
0
0
0
0
0
0
0
0
0
1
1
0
0
0
0
0
0
0
0
0
0
0
0
0
0
0
0
0
0
0
0
0
0
0
0
0
0
0
0
0
0
0
0
0
1
1
0
0
0
0
0
0
0
0
0
0
0
0
0
0
0
0
0
0
0
0
1
1
0
0
0
0
0
0
0
0
0
0
0
0
0
0
0
0
0
0
0
0
0
0
0
0
0
0
0
0
0
0
0
0
0
1
1
0
0
0
0
0
0
0
0
0
0
0
0
0
0
0
0
0
0
0
0
1
1
0
0
0
0
0
0
0
0
0
0
0
0
0
0
0
0
0
0
0
0
0
0
0
0
0
0
0
0
0
0
0
0
0
1
1
0
0
0
0
0
0
0
0
0
0
0
0
0
0
0
0
0
0
0
0
1
1
0
0
0
0
0
0
0
0
0
0
0
0
0
0
0
0
0
0
0
0
0
0
0
0
0
0
0
0
0
0
0
0
0
1
1
0
0
0
0
0
0
0
0
0
0
0
0
0
0
0
0
0
0
0
0
1
1
0
0
0
0
0
0
0
0
0
0
0
0
0
0
0
0
0
0
0
0
0
0
0
0
0
0
0
0
0
0
0
0
0
1
1
0
0
0
0
0
0
0
0
0
0
0
0
0
0
0
0
0
0
0
0
1
1
0
0
0
0
0
0
0
0
0
0
0
0
0
0
0
0
0
0
0
0
0
0
0
0
0
0
0
0
0
0
0
0
0
1
1
0
0
0
0
0
0
0
0
0
0
0
0
0
0
0
0
0
0
0
0
1
1
0
0
0
0
0
0
0
0
0
0
0
0
0
0
0
0
0
0
0
0
0
0
0
0
0
0
0
0
0
0
0
0
0
1
1
0
0
0
0
0
0
0
0
0
0
0
0
0
0
0
0
0
0
0
0
1
1
0
0
0
0
0
0
0
0
0
0
0
0
0
0
0
0
0
0
0
0
0
0
0
0
0
0
0
0
0
0
0
0
0
1
1
0
0
0
0
0
0
0
0
0
0
0
0
0
0
0
0
0
0
0
0
1
1
0
0
0
0
0
0
0
0
0
0
0
0
0
0
0
0
0
0
0
0
0
0
0
0
0
0
0
0
0
0
0
0
0
1
1
0
0
0
0
0
0
0
0
0
0
0
0
0
0
0
0
0
0
0
0
1
1
0
0
0
0
0
0
0
0
0
0
0
0
0
0
0
0
0
0
0
0
0
0
0
0
0
0
0
0
0
0
0
0
0
1
1
0
0
0
0
0
0
0
0
0
0
0
0
0
0
0
0
0
0
0
0
1
1
0
0
0
0
0
0
0
0
0
0
0
0
0
0
0
0
0
0
0
0
0
0
0
0
0
0
0
0
0
0
0
0
0
1
1
0
0
0
0
0
0
0
0
0
0
0
0
0
0
0
0
0
0
0
0
1
1
0
0
0
0
0
0
0
0
0
0
0
0
0
0
0
0
0
0
0
0
0
0
0
0
0
0
0
0
0
0
0
0
0
1
1
0
0
0
0
0
0
0
0
0
0
0
0
0
0
0
0
0
0
0
0
1
1
0
0
0
0
0
0
0
0
0
0
0
0
0
0
0
0
0
0
0
0
0
0
0
0
0
0
0
0
0
0
0
0
0
1
1
0
0
0
0
0
0
0
0
0
0
0
0
0
0
0
0
0
0
0
0
1
1
0
0
0
0
0
0
0
0
0
0
0
0
0
0
0
0
0
0
0
0
0
0
0
0
0
0
0
0
0
0
0
0
0
1
1
0
0
0
0
0
0
0
0
0
0
0
0
0
0
0
0
0
0
0
0
1
1
0
0
0
0
0
0
0
0
0
0
0
0
0
0
0
0
0
0
0
0
0
0
0
0
0
0
0
0
0
0
0
0
0
1
1
0
0
0
0
0
0
0
0
0
0
0
0
0
0
0
0
0
0
0
0
1
1
0
0
0
0
0
0
0
0
0
0
0
0
0
0
0
0
0
0
0
0
0
0
0
0
0
0
0
0
0
0
0
0
0
1
1
0
0
0
0
0
0
0
0
0
0
0
0
0
0
0
0
0
0
0
0
1
1
0
0
0
0
0
0
0
0
0
0
0
0
0
0
0
0
0
0
0
0
0
0
0
0
0
0
0
0
0
0
0
0
0
1
1
0
0
0
0
0
0
0
0
0
0
0
0
0
0
0
0
0
0
0
0
1
1
0
0
0
0
0
0
0
0
0
0
0
0
0
0
0
0
0
0
0
0
0
0
0
0
0
0
0
0
0
0
0
0
0
1
1
0
0
0
0
0
0
0
0
0
0
0
0
0
0
0
0
0
0
0
0
1
1
0
0
0
0
0
0
0
0
0
0
0
0
0
0
0
0
0
0
0
0
0
0
0
0
0
0
0
0
0
0
0
0
0
1
1
0
0
0
0
0
0
0
0
0
0
0
0
0
0
0
0
0
0
0
0
1
1
0
0
0
0
0
0
0
0
0
0
0
0
0
0
0
0
0
0
0
0
0
0
0
0
0
0
0
0
0
0
0
0
0
1
1
0
0
0
0
0
0
0
0
0
0
0
0
0
0
0
0
0
0
0
0
1
1
0
0
0
0
0
0
0
0
0
0
0
0
0
0
0
0
0
0
0
0
0
0
0
0
0
0
0
0
0
0
0
0
0
1
1
0
0
0
0
0
0
0
0
0
0
0
0
0
0
0
0
0
0
0
0
1
1
0
0
0
0
0
0
0
0
0
0
0
0
0
0
0
0
0
0
0
0
0
0
0
0
0
0
0
0
0
0
0
0
0
1
1
0
0
0
0
0
0
0
0
0
0
0
0
0
0
0
0
0
0
0
0
1
1
0
0
0
0
0
0
0
0
0
0
0
0
0
0
0
0
0
0
0
0
0
0
0
0
0
0
0
0
0
0
0
0
0
1
1
0
0
0
0
0
0
0
0
0
0
0
0
0
0
0
0
0
0
0
0
1
1
0
0
0
0
0
0
0
0
0
0
0
0
0
0
0
0
0
0
0
0
0
0
0
0
0
0
0
0
0
0
0
0
0
1
1
0
0
0
0
0
0
0
0
0
0
0
0
0
0
0
0
0
0
0
0
0
1
1
0
0
0
0
0
0
0
0
0
0
0
0
0
0
0
0
0
0
0
0
0
0
0
0
0
0
0
0
0
0
0
0
0
0
1
1
0
0
0
0
0
0
0
0
0
0
0
0
0
0
0
0
0
0
0
0
0
0
0
0
0
0
0
0
0
0
0
0
0
0
0
0
0
0
0
0
0
0
0
0
0
0
0
0
0
0
0
0
0
0
0
0
0
1
1
0
0
0
0
0
0
0
0
0
0
0
0
0
0
0
0
0
0
0
0
0
0
0
0
0
0
0
0
0
0
0
0
0
0
0
0
0
0
0
0
0
0
0
0
0
0
0
0
0
0
0
0
0
0
0
0
0
1
1
0
0
0
0
0
0
0
0
0
0
0
0
0
0
0
0
0
0
0
0
0
0
0
0
0
0
0
0
0
0
0
0
0
0
0
0
0
0
0
0
0
0
0
0
0
0
0
0
0
0
0
0
0
0
0
0
0
1
1
0
0
0
0
0
0
0
0
0
0
0
0
0
0
0
0
0
0
0
0
0
0
0
0
0
0
0
0
0
0
0
0
0
0
0
0
0
0
0
0
0
0
0
0
0
0
0
0
0
0
0
0
0
0
0
0
0
1
1
0
0
0
0
0
0
0
0
0
0
0
0
0
0
0
0
0
0
0
0
0
0
0
0
0
0
0
0
0
0
0
0
0
0
0
0
0
0
0
0
0
0
0
0
0
0
0
0
0
0
0
0
0
0
0
0
0
1
1
0
0
0
0
0
0
0
0
0
0
0
0
0
0
0
0
0
0
0
0
0
0
0
0
0
0
0
0
0
0
0
0
0
0
0
0
0
0
0
0
0
0
0
0
0
0
0
0
0
0
0
0
0
0
0
0
0
1
1
0
0
0
0
0
0
0
0
0
0
0
0
0
0
0
0
0
0
0
0
0
0
0
0
0
0
0
0
0
0
0
0
0
0
0
0
0
0
0
0
0
0
0
0
0
0
0
0
0
0
0
0
0
0
0
0
0
1
1
0
0
0
0
0
0
0
0
0
0
0
0
0
0
0
0
0
0
0
0
0
0
0
0
0
0
0
0
0
0
0
0
0
0
0
0
0
0
0
0
0
0
0
0
0
0
0
0
0
0
0
0
0
0
0
0
0
1
1
0
0
0
0
0
0
0
0
0
0
0
0
0
0
0
0
0
0
0
0
0
0
0
0
0
0
0
0
0
0
0
0
0
0
0
0
0
0
0
0
0
0
0
0
0
0
0
0
0
0
0
0
0
0
0
0
0
1
1
0
0
0
0
0
0
0
0
0
0
0
0
0
0
0
0
0
0
0
0
0
0
0
0
0
0
0
0
0
0
0
0
0
0
0
0
0
0
0
0
0
0
0
0
0
0
0
0
0
0
0
0
0
0
0
0
0
1
1
0
0
0
0
0
0
0
0
0
0
0
0
0
0
0
0
0
0
0
0
0
1
1
0
0
0
0
0
0
0
0
0
0
0
0
0
0
0
0
0
0
0
0
0
0
0
0
0
0
0
0
0
0
0
0
0
0
1
1
0
0
0
0
0
0
0
0
0
0
0
0
0
0
0
0
0
0
0
0
1
1
0
0
0
0
0
0
0
0
0
0
0
0
0
0
0
0
0
0
0
0
0
0
0
0
0
0
0
0
0
0
0
0
0
1
1
0
0
0
0
0
0
0
0
0
0
0
0
0
0
0
0
0
0
0
0
1
1
0
0
0
0
0
0
0
0
0
0
0
0
0
0
0
0
0
0
0
0
0
0
0
0
0
0
0
0
0
0
0
0
0
1
1
0
0
0
0
0
0
0
0
0
0
0
0
0
0
0
0
0
0
0
0
1
1
0
0
0
0
0
0
0
0
0
0
0
0
0
0
0
0
0
0
0
0
0
0
0
0
0
0
0
0
0
0
0
0
0
1
1
0
0
0
0
0
0
0
0
0
0
0
0
0
0
0
0
0
0
0
0
1
1
0
0
0
0
0
0
0
0
0
0
0
0
0
0
0
0
0
0
0
0
0
0
0
0
0
0
0
0
0
0
0
0
0
1
1
0
0
0
0
0
0
0
0
0
0
0
0
0
0
0
0
0
0
0
0
1
1
0
0
0
0
0
0
0
0
0
0
0
0
0
0
0
0
0
0
0
0
0
0
0
0
0
0
0
0
0
0
0
0
0
1
1
0
0
0
0
0
0
0
0
0
0
0
0
0
0
0
0
0
0
0
0
1
1
0
0
0
0
0
0
0
0
0
0
0
0
0
0
0
0
0
0
0
0
0
0
0
0
0
0
0
0
0
0
0
0
0
1
1
0
0
0
0
0
0
0
0
0
0
0
0
0
0
0
0
0
0
0
0
1
1
0
0
0
0
0
0
0
0
0
0
0
0
0
0
0
0
0
0
0
0
0
0
0
0
0
0
0
0
0
0
0
0
0
1
1
0
0
0
0
0
0
0
0
0
0
0
0
0
0
0
0
0
0
0
0
1
1
0
0
0
0
0
0
0
0
0
0
0
0
0
0
0
0
0
0
0
0
0
0
0
0
0
0
0
0
0
0
0
0
0
1
1
0
0
0
0
0
0
0
0
0
0
0
0
0
0
0
0
0
0
0
0
1
1
0
0
0
0
0
0
0
0
0
0
0
0
0
0
0
0
0
0
0
0
0
0
0
0
0
0
0
0
0
0
0
0
0
1
1
0
0
0
0
0
0
0
0
0
0
0
0
0
0
0
0
0
0
0
0
1
1
0
0
0
0
0
0
0
0
0
0
0
0
0
0
0
0
0
0
0
0
0
0
0
0
0
0
0
0
0
0
0
0
0
1
1
0
0
0
0
0
0
0
0
0
0
0
0
0
0
0
0
0
0
0
0
1
1
0
0
0
0
0
0
0
0
0
0
0
0
0
0
0
0
0
0
0
0
0
0
0
0
0
0
0
0
0
0
0
0
0
1
1
0
0
0
0
0
0
0
0
0
0
0
0
0
0
0
0
0
0
0
0
1
1
0
0
0
0
0
0
0
0
0
0
0
0
0
0
0
0
0
0
0
0
0
0
0
0
0
0
0
0
0
0
0
0
0
1
1
0
0
0
0
0
0
0
0
0
0
0
0
0
0
0
0
0
0
0
0
1
1
0
0
0
0
0
0
0
0
0
0
0
0
0
0
0
0
0
0
0
0
0
0
0
0
0
0
0
0
0
0
0
0
0
1
1
0
0
0
0
0
0
0
0
0
0
0
0
0
0
0
0
0
0
0
0
1
1
0
0
0
0
0
0
0
0
0
0
0
0
0
0
0
0
0
0
0
0
0
0
0
0
0
0
0
0
0
0
0
0
0
1
1
0
0
0
0
0
0
0
0
0
0
0
0
0
0
0
0
0
0
0
0
1
1
0
0
0
0
0
0
0
0
0
0
0
0
0
0
0
0
0
0
0
0
0
0
0
0
0
0
0
0
0
0
0
0
0
1
1
0
0
0
0
0
0
0
0
0
0
0
0
0
0
0
0
0
0
0
0
1
1
0
0
0
0
0
0
0
0
0
0
0
0
0
0
0
0
0
0
0
0
0
0
0
0
0
0
0
0
0
0
0
0
0
1
1
0
0
0
0
0
0
0
0
0
0
0
0
0
0
0
0
0
0
0
0
1
1
0
0
0
0
0
0
0
0
0
0
0
0
0
0
0
0
0
0
0
0
0
0
0
0
0
0
0
0
0
0
0
0
0
1
1
0
0
0
0
0
0
0
0
0
0
0
0
0
0
0
0
0
0
0
0
1
1
0
0
0
0
0
0
0
0
0
0
0
0
0
0
0
0
0
0
0
0
0
0
0
0
0
0
0
0
0
0
0
0
0
1
1
0
0
0
0
0
0
0
0
0
0
0
0
0
0
0
0
0
0
0
0
1
1
0
0
0
0
0
0
0
0
0
0
0
0
0
0
0
0
0
0
0
0
0
0
0
0
0
0
0
0
0
0
0
0
0
1
1
0
0
0
0
0
0
0
0
0
0
0
0
0
0
0
0
0
0
0
0
1
1
0
0
0
0
0
0
0
0
0
0
0
0
0
0
0
0
0
0
0
0
0
0
0
0
0
0
0
0
0
0
0
0
0
1
1
0
0
0
0
0
0
0
0
0
0
0
0
0
0
0
0
0
0
0
0
1
1
0
0
0
0
0
0
0
0
0
0
0
0
0
0
0
0
0
0
0
0
0
0
0
0
0
0
0
0
0
0
0
0
0
1
1
1
1
1
1
1
1
1
1
1
1
1
1
1
1
1
1
1
1
1
1
1
1
1
1
1
1
1
1
1
1
1
1
1
1
1
1
1
1
1
1
1
1
1
1
1
1
1
1
1
1
1
1
1
1
1
1
				</DataArray>
				<DataArray type="Float64" Name="h" NumberOfComponents="1" Format="ascii">
1.4731997834
1.4688188541
1.4683645548
1.4674691813
1.4661639994
1.4644958366
1.4625263180
1.4603295140
1.4579871755
1.4555832591
1.4531977161
1.4509009020
1.4487502892
1.4467889626
1.4450464169
1.4435410499
1.4422827600
1.4412759205
1.4405218590
1.4400202022
1.4397702215
1.4397702215
1.0227968597
1.0261349519
1.0258229781
1.0252040730
1.0242890370
1.0230947739
1.0216452576
1.0199724714
1.0181168847
1.0161276826
1.0140619192
1.0119824488
1.0099547798
1.0080423783
1.0063012862
1.0047749077
1.0034896329
1.0024528368
1.0016536979
1.0010665591
1.0006563171
1.0003843447
1.0002136336
1.0001124086
1.0000558380
1.0000261105
1.0000114587
1.0000047044
1.0000018005
1.0000006399
1.0000002103
1.0000000636
1.0000000178
1.0000000054
1.0000000054
1.4688188541
1.4641304017
1.4637335608
1.4629472048
1.4617925429
1.4603031137
1.4585258060
1.4565205126
1.4543571820
1.4521116294
1.4498598142
1.4476718641
1.4456077441
1.4437144198
1.4420254456
1.4405626247
1.4393382286
1.4383580025
1.4376238835
1.4371356362
1.4368924751
1.4397702215
1.0261349519
1.0297172852
1.0293871310
1.0287311568
1.0277589221
1.0264855933
1.0249331045
1.0231313798
1.0211191541
1.0189446720
1.0166653609
1.0143462599
1.0120573081
1.0098688049
1.0078457992
1.0060422027
1.0044952428
1.0032220507
1.0022191459
1.0014648395
1.0009243665
1.0005562558
1.0003184203
1.0001729530
1.0000889099
1.0000431427
1.0000197052
1.0000084469
1.0000033875
1.0000012665
1.0000004398
1.0000001414
1.0000000424
1.0000000141
1.0000000054
1.4674693637
1.4628290939
1.4624665092
1.4617463972
1.4606857951
1.4593123023
1.4576655265
1.4557974100
1.4537701273
1.4516527625
1.4495163049
1.4474280353
1.4454471217
1.4436213528
1.4419860928
1.4405653031
1.4393732800
1.4384173967
1.4377007468
1.4372238273
1.4369862634
1.4397938285
1.0282413605
1.0317376566
1.0314167098
1.0307778013
1.0298279704
1.0285786278
1.0270467842
1.0252564447
1.0232397241
1.0210380589
1.0187026308
1.0162937280
1.0138790920
1.0115303079
1.0093177059
1.0073043227
1.0055393184
1.0040528067
1.0028532676
1.0019280766
1.0012475407
1.0007711428
1.0004543359
1.0002545614
1.0001353289
1.0000680983
1.0000323554
1.0000144776
1.0000060837
1.0000023936
1.0000008789
1.0000003004
1.0000000967
1.0000000350
1.0000000147
1.4648264908
1.4602759031
1.4599788439
1.4593854945
1.4585050205
1.4573538136
1.4559577311
1.4543536632
1.4525889920
1.4507198789
1.4488076204
1.4469137614
1.4450956209
1.4434022836
1.4418724008
1.4405340080
1.4394053209
1.4384969335
1.4378142727
1.4373593432
1.4371326304
1.4398016143
1.0321807241
1.0355038208
1.0352014630
1.0345973798
1.0336942720
1.0324970414
1.0310140691
1.0292588129
1.0272513052
1.0250201168
1.0226039781
1.0200527414
1.0174277140
1.0148000349
1.0122470311
1.0098465657
1.0076691510
1.0057698307
1.0041815952
1.0029118403
1.0019435742
1.0012407401
1.0007559257
1.0004386122
1.0002418658
1.0001264758
1.0000625721
1.0000292185
1.0000128445
1.0000053010
1.0000020480
1.0000007394
1.0000002530
1.0000000986
1.0000000441
1.4610102646
1.4565835339
1.4563782873
1.4559627048
1.4553352280
1.4544969665
1.4534549820
1.4522254805
1.4508353188
1.4493224332
1.4477340704
1.4461230008
1.4445431171
1.4430445814
1.4416701570
1.4404533885
1.4394180390
1.4385794292
1.4379465245
1.4375236860
1.4373127793
1.4397785420
1.0374453128
1.0405038265
1.0402301152
1.0396804592
1.0388524106
1.0377430753
1.0363503361
1.0346745194
1.0327201001
1.0304982677
1.0280297071
1.0253473227
1.0224990897
1.0195494088
1.0165783080
1.0136777243
1.0109434567
1.0084642316
1.0063099164
1.0045215093
1.0031067756
1.0020425182
1.0012822862
1.0007672497
1.0004367236
1.0002360175
1.0001208519
1.0000585062
1.0000267164
1.0000114791
1.0000046292
1.0000017504
1.0000006314
1.0000002617
1.0000001237
1.4561847229
1.4519082971
1.4518146917
1.4516155428
1.4512967959
1.4508417123
1.4502353010
1.4494692938
1.4485459141
1.4474807258
1.4463030978
1.4450538844
1.4437813904
1.4425358179
1.4413640606
1.4403059921
1.4393921929
1.4386440890
1.4380754147
1.4376938282
1.4375031884
1.4397083476
1.0434313699
1.0461425459
1.0459069558
1.0454306520
1.0447062313
1.0437232379
1.0424692082
1.0409312007
1.0390973640
1.0369596319
1.0345171303
1.0317801634
1.0287753726
1.0255504773
1.0221775949
1.0187536778
1.0153950270
1.0122257931
1.0093616541
1.0068917142
1.0048651240
1.0032864108
1.0021203248
1.0013043685
1.0007638644
1.0004251305
1.0002244626
1.0001122188
1.0000530143
1.0000236141
1.0000098964
1.0000039014
1.0000014762
1.0000006468
1.0000003214
1.4505445741
1.4464391169
1.4464699054
1.4465123256
1.4465391887
1.4465149141
1.4464010569
1.4461630025
1.4457759569
1.4452302524
1.4445342374
1.4437137612
1.4428089125
1.4418681318
1.4409416492
1.4400758229
1.4393089031
1.4386696254
1.4381777231
1.4378451789
1.4376785546
1.4395774667
1.0495585713
1.0518630296
1.0516729694
1.0512851321
1.0506880092
1.0498648809
1.0487946422
1.0474530548
1.0458138569
1.0438510262
1.0415420081
1.0388719346
1.0358400331
1.0324670935
1.0288031681
1.0249339363
1.0209812457
1.0170954443
1.0134382112
1.0101573569
1.0073618184
1.0051048657
1.0033806453
1.0021349202
1.0012839613
1.0007343751
1.0003988783
1.0002054144
1.0001001186
1.0000460951
1.0000200116
1.0000081968
1.0000032414
1.0000014933
1.0000007762
1.4443012191
1.4403850957
1.4405461745
1.4408421504
1.4412330742
1.4416649263
1.4420760590
1.4424053750
1.4426002961
1.4426243657
1.4424625994
1.4421230396
1.4416347229
1.4410419723
1.4403968685
1.4397517765
1.4391530203
1.4386376190
1.4382324861
1.4379550093
1.4378152447
1.4393786336
1.0553583287
1.0572280453
1.0570881186
1.0567983235
1.0563440242
1.0557038469
1.0548503831
1.0537511897
1.0523693084
1.0506647058
1.0485965993
1.0461267522
1.0432255624
1.0398805500
1.0361071281
1.0319609237
1.0275467509
1.0230198288
1.0185743462
1.0144164673
1.0107286625
1.0076364599
1.0051891325
1.0033617096
1.0020740699
1.0012174070
1.0006790605
1.0003594963
1.0001803637
1.0000856167
1.0000383978
1.0000162931
1.0000067112
1.0000032357
1.0000017514
1.4376680369
1.4339609550
1.4342522049
1.4348021267
1.4355591421
1.4364522481
1.4373981161
1.4383104160
1.4391093980
1.4397314921
1.4401370141
1.4403139496
1.4402775666
1.4400654632
1.4397295983
1.4393273214
1.4389129790
1.4385325587
1.4382212116
1.4380028054
1.4378917222
1.4391102841
1.0605142660
1.0619513270
1.0618637040
1.0616764906
1.0613725316
1.0609269833
1.0603081316
1.0594783495
1.0583941370
1.0570066571
1.0552627842
1.0531066335
1.0504838468
1.0473489725
1.0436767423
1.0394781458
1.0348175007
1.0298256461
1.0247013832
1.0196919939
1.0150538606
1.0110030654
1.0076732260
1.0050985608
1.0032251205
1.0019407443
1.0011101731
1.0006031530
1.0003108714
1.0001518004
1.0000701536
1.0000307533
1.0000131537
1.0000066091
1.0000037105
1.4308498674
1.4273754403
1.4277918402
1.4285865700
1.4296980112
1.4310402924
1.4325107668
1.4340001157
1.4354031274
1.4366299129
1.4376157406
1.4383270714
1.4387631278
1.4389522377
1.4389440137
1.4387993385
1.4385800796
1.4383415219
1.4381278973
1.4379705331
1.4378889450
1.4387748300
1.0648548726
1.0658843737
1.0658500086
1.0657671336
1.0656159595
1.0653684171
1.0649894443
1.0644382473
1.0636681601
1.0626264775
1.0612542579
1.0594857790
1.0572501235
1.0544757001
1.0510992149
1.0470818452
1.0424310768
1.0372249672
1.0316305388
1.0259017636
1.0203489942
1.0152817509
1.0109421814
1.0074586140
1.0048361132
1.0029815447
1.0017471967
1.0009727339
1.0005141260
1.0002577187
1.0001224473
1.0000553147
1.0000244958
1.0000127770
1.0000074137
1.4240355274
1.4208219480
1.4213546309
1.4223774752
1.4238206173
1.4255857617
1.4275537893
1.4295952974
1.4315821660
1.4333999681
1.4349596084
1.4362054861
1.4371191794
1.4377175220
1.4380455131
1.4381658008
1.4381468322
1.4380530935
1.4379384161
1.4378423602
1.4377902666
1.4383756607
1.0683206395
1.0689824681
1.0690026821
1.0690261370
1.0690293498
1.0689800571
1.0688394284
1.0685640503
1.0681059900
1.0674122740
1.0664237584
1.0650726847
1.0632813852
1.0609630722
1.0580264486
1.0543883419
1.0499953567
1.0448544206
1.0390667044
1.0328488207
1.0265246918
1.0204766271
1.0150630793
1.0105376938
1.0070043732
1.0044227456
1.0026529498
1.0015117295
1.0008180740
1.0004201865
1.0002048096
1.0000951203
1.0000434946
1.0000234674
1.0000140270
1.4173918787
1.4144705573
1.4151075761
1.4163357323
1.4180787801
1.4202285895
1.4226526869
1.4252049394
1.4277375268
1.4301141143
1.4322229009
1.4339866525
1.4353685003
1.4363720460
1.4370355197
1.4374213495
1.4376031946
1.4376541621
1.4376377664
1.4376022372
1.4375791962
1.4379120266
1.0709270966
1.0712691532
1.0713472954
1.0714824303
1.0716451622
1.0717966955
1.0718925445
1.0718856939
1.0717272247
1.0713657870
1.0707459257
1.0698041658
1.0684652052
1.0666389893
1.0642201232
1.0610945308
1.0571563111
1.0523379750
1.0466534777
1.0402411607
1.0333864905
1.0264998383
1.0200378484
1.0143948966
1.0098123611
1.0063454577
1.0038942877
1.0022691505
1.0012555964
1.0006597103
1.0003292521
1.0001568706
1.0000738748
1.0000410955
1.0000252278
1.4110617261
1.4084643522
1.4091910749
1.4105964085
1.4125996477
1.4150855430
1.4179116106
1.4209187068
1.4239430542
1.4268297530
1.4294468022
1.4316966517
1.4335239731
1.4349179461
1.4359080855
1.4365544795
1.4369342404
1.4371279933
1.4372084870
1.4372325796
1.4372382390
1.4373758345
1.0727311819
1.0728043371
1.0729475491
1.0732062047
1.0735412552
1.0739034596
1.0742393223
1.0744958793
1.0746221376
1.0745687471
1.0742860667
1.0737192144
1.0728023501
1.0714526534
1.0695647953
1.0670107893
1.0636491306
1.0593488300
1.0540329924
1.0477356046
1.0406544831
1.0331685514
1.0257868472
1.0190331783
1.0133117683
1.0088184232
1.0055360799
1.0032964662
1.0018631155
1.0009999414
1.0005101115
1.0002488297
1.0001203927
1.0000688424
1.0000432842
1.4051624755
1.4029173033
1.4037165629
1.4052659463
1.4074823654
1.4102463919
1.4134091688
1.4168026269
1.4202512274
1.4235854050
1.4266561235
1.4293475507
1.4315865712
1.4333472838
1.4346488102
1.4355467381
1.4361195553
1.4364537984
1.4366304072
1.4367142059
1.4367489763
1.4367509872
1.0738046622
1.0736586199
1.0738800477
1.0742841247
1.0748161887
1.0754106762
1.0760002228
1.0765224601
1.0769223140
1.0771518286
1.0771680123
1.0769271046
1.0763775190
1.0754515700
1.0740559446
1.0720652469
1.0693225135
1.0656533883
1.0609026398
1.0549940539
1.0480046269
1.0402232161
1.0321463934
1.0243855438
1.0175077984
1.0118855747
1.0076331445
1.0046430121
1.0026782102
1.0014665292
1.0007635449
1.0003806329
1.0001887853
1.0001106578
1.0000710806
1.3997843139
1.3979125831
1.3987648020
1.4004204240
1.4027963369
1.4057722362
1.4091969153
1.4128978378
1.4166922547
1.4204002016
1.4238591896
1.4269376229
1.4295457935
1.4316425376
1.4332352338
1.4343729041
1.4351331733
1.4356064908
1.4358803618
1.4360261578
1.4360920437
1.4360141094
1.0742128264
1.0738922891
1.0742144620
1.0748008229
1.0755716089
1.0764364149
1.0773075401
1.0781089598
1.0787791633
1.0792707106
1.0795475520
1.0795784690
1.0793290421
1.0787519260
1.0777745195
1.0762875065
1.0741374354
1.0711298799
1.0670540609
1.0617360716
1.0551212891
1.0473655994
1.0388852157
1.0303133203
1.0223484073
1.0155542271
1.0102211943
1.0063502225
1.0037363306
1.0020853814
1.0011066581
1.0005628744
1.0002855830
1.0001711637
1.0001120682
1.3949901408
1.3935032747
1.3943867743
1.3961068035
1.3985829579
1.4016978071
1.4053022367
1.4092240203
1.4132779547
1.4172780787
1.4210521801
1.4244556493
1.4273837269
1.4297802335
1.4316398741
1.4330033483
1.4339452925
1.4345579366
1.4349332815
1.4351469643
1.4352487309
1.4351380177
1.0739934292
1.0735347848
1.0739954285
1.0748234247
1.0758986062
1.0770935633
1.0782921223
1.0794000371
1.0803474064
1.0810870077
1.0815903539
1.0818399232
1.0818202551
1.0815073873
1.0808549066
1.0797791001
1.0781452246
1.0757604338
1.0723847111
1.0677708572
1.0617426559
1.0543037827
1.0457354520
1.0366179952
1.0277215194
1.0197860180
1.0133076999
1.0084448929
1.0050665638
1.0028802385
1.0015561942
1.0008064221
1.0004177502
1.0002554317
1.0001701169
1.3908153668
1.3897133733
1.3906050352
1.3923449379
1.3948584864
1.3980352851
1.4017330790
1.4057848878
1.4100077897
1.4142140968
1.4182254707
1.4218870229
1.4250806708
1.4277358661
1.4298342657
1.4314070994
1.4325244362
1.4332784987
1.4337636421
1.4340566186
1.4342038212
1.4340968685
1.0731345516
1.0725635655
1.0732263620
1.0743901031
1.0758693070
1.0774825856
1.0790757984
1.0805325504
1.0817741189
1.0827548491
1.0834557115
1.0838746208
1.0840165382
1.0838825054
1.0834551258
1.0826819531
1.0814574488
1.0796075890
1.0768876706
1.0730060945
1.0676892619
1.0607926737
1.0524312757
1.0430660990
1.0334633930
1.0244940666
1.0168649315
1.0109325790
1.0066868922
1.0038697097
1.0021268201
1.0011214657
1.0005921477
1.0003686257
1.0002492590
1.3872682233
1.3865394995
1.3874158055
1.3891303558
1.3916177071
1.3947788812
1.3984833381
1.4025741671
1.4068751573
1.4112007449
1.4153696638
1.4192192454
1.4226198512
1.4254875930
1.4277914203
1.4295529401
1.4308372525
1.4317359611
1.4323443998
1.4327367587
1.4329478723
1.4328705743
1.0715488377
1.0708796985
1.0718555162
1.0735048083
1.0755364826
1.0776926530
1.0797717587
1.0816339378
1.0831945673
1.0844139918
1.0852868397
1.0858295515
1.0860693051
1.0860330072
1.0857331557
1.0851509766
1.0842160856
1.0827851498
1.0806285289
1.0774377541
1.0728723109
1.0666606266
1.0587451389
1.0494217364
1.0393780880
1.0295489224
1.0208277766
1.0137928102
1.0085998106
1.0050641669
1.0028291808
1.0015163692
1.0008148490
1.0005155255
1.0003533349
1.3843324080
1.3839547681
1.3847931140
1.3864388907
1.3888391450
1.3919106013
1.3955390272
1.3995819504
1.4038736833
1.4082339466
1.4124811075
1.4164467704
1.4199913866
1.4230190669
1.4254872174
1.4274090693
1.4288463776
1.4298920787
1.4306436710
1.4311699816
1.4314815689
1.4314506239
1.0690366602
1.0682723898
1.0697630202
1.0721396341
1.0749428073
1.0778117849
1.0804923004
1.0828263344
1.0847326519
1.0861869982
1.0872051921
1.0878271776
1.0881048341
1.0880914324
1.0878288358
1.0873317721
1.0865670624
1.0854287376
1.0837160727
1.0811264353
1.0772826275
1.0718160390
1.0645105062
1.0554760527
1.0452618580
1.0347916085
1.0250967796
1.0169768942
1.0107887952
1.0064627107
1.0036677937
1.0019963441
1.0010903121
1.0006999322
1.0004855386
1.3819703318
1.3819130007
1.3826931102
1.3842311546
1.3864896918
1.3894049448
1.3928829212
1.3967991486
1.4010013734
1.4053168385
1.4095652572
1.4135738897
1.4171945493
1.4203207598
1.4229002633
1.4249408142
1.4265054582
1.4276951783
1.4286171061
1.4293371867
1.4298251029
1.4298501022
1.0652236505
1.0643573143
1.0667490461
1.0702498872
1.0741444999
1.0779486544
1.0813646423
1.0842359974
1.0865051402
1.0881797359
1.0893083335
1.0899612614
1.0902181462
1.0901587559
1.0898526370
1.0893458105
1.0886412028
1.0876724076
1.0862757229
1.0841708725
1.0809699108
1.0762390447
1.0696298027
1.0610682123
1.0509274917
1.0400518603
1.0295469691
1.0204096540
1.0132167415
1.0080508929
1.0046391389
1.0025621168
1.0014204909
1.0009240060
1.0006479005
1.3801277697
1.3803540244
1.3810592283
1.3824574305
1.3845290858
1.3872328438
1.3904978617
1.3942201289
1.3982626182
1.4024612377
1.4066377210
1.4106154179
1.4142379815
1.4173892740
1.4200093776
1.4221048367
1.4237484070
1.4250637512
1.4261887413
1.4272065094
1.4280361671
1.4281216246
1.0594390234
1.0584546006
1.0625260104
1.0678136683
1.0732587185
1.0782705313
1.0825557708
1.0860074143
1.0886287110
1.0904843514
1.0916707058
1.0922963121
1.0924713192
1.0923012859
1.0918805432
1.0912824897
1.0905425794
1.0896325755
1.0884289489
1.0866841448
1.0840192857
1.0799642425
1.0740693957
1.0660947281
1.0562231526
1.0451674470
1.0340410115
1.0239953735
1.0158271526
1.0097998606
1.0057303707
1.0032088288
1.0018040186
1.0011876202
1.0008407668
1.3787397193
1.3792097029
1.3798278968
1.3810627740
1.3829141873
1.3853649858
1.3883691119
1.3918441992
1.3956690100
1.3996880716
1.4037246086
1.4075971969
1.4111403512
1.4142276231
1.4167920406
1.4188429228
1.4204743136
1.4218584295
1.4232118289
1.4247042210
1.4262524683
1.4263992636
1.0504617663
1.0493326886
1.0567300521
1.0649216249
1.0725466204
1.0790562566
1.0842990265
1.0883135481
1.0912221579
1.0931784849
1.0943423448
1.0948666935
1.0948929831
1.0945500681
1.0939526223
1.0931959650
1.0923425843
1.0913982983
1.0902789608
1.0887747360
1.0865292673
1.0830594424
1.0778449295
1.0705063844
1.0610410586
1.0499988962
1.0384426436
1.0276260621
1.0185475393
1.0116669130
1.0069187562
1.0039252621
1.0022355250
1.0014877789
1.0010623118
1.3777353776
1.3784087518
1.3789329206
1.3799905967
1.3816015151
1.3837732101
1.3864846791
1.3896750751
1.3932383057
1.3970262985
1.4008619440
1.4045565238
1.4079321069
1.4108479649
1.4132262298
1.4150781208
1.4165285940
1.4178348465
1.4193858783
1.4216320117
1.4247881879
1.4249940957
1.0360656300
1.0347472138
1.0490704616
1.0620044159
1.0725606493
1.0807620296
1.0869119591
1.0913527639
1.0943973816
1.0963169868
1.0973435144
1.0976743152
1.0974783908
1.0969023940
1.0960749641
1.0951064865
1.0940796052
1.0930281919
1.0919038099
1.0905350680
1.0885958769
1.0856072619
1.0810045568
1.0742984489
1.0653179902
1.0544385631
1.0426285871
1.0311910486
1.0212949370
1.0135977883
1.0081722060
1.0046936666
1.0027052721
1.0018182299
1.0013081845
1.3770434307
1.3778816292
1.3783098950
1.3791862062
1.3805496584
1.3824317070
1.3848353910
1.3877200841
1.3909931595
1.3945117256
1.3980953022
1.4015435131
1.4046595042
1.4072787262
1.4092990876
1.4107180500
1.4116826444
1.4125633478
1.4140713017
1.4174143741
1.4243253365
1.4245846163
1.0134242664
1.0118449144
1.0404821290
1.0605496741
1.0744433440
1.0841031491
1.0907935119
1.0953233539
1.0982346482
1.0999144227
1.1006546912
1.1006844990
1.1001893542
1.0993242415
1.0982233424
1.0970041887
1.0957619317
1.0945514434
1.0933544702
1.0920356842
1.0903023622
1.0876908898
1.0836131242
1.0774975830
1.0690293597
1.0584132576
1.0464967482
1.0345859337
1.0239824936
1.0155303663
1.0094509255
1.0054903144
1.0031992347
1.0021693852
1.0015713822
1.3765963701
1.3775642377
1.3778995073
1.3785993810
1.3797209200
1.3813176744
1.3834146617
1.3859892800
1.3889599872
1.3921862517
1.3954804248
1.3986246485
1.4013934165
1.4035815263
1.4050335520
1.4056852674
1.4056376654
1.4053191582
1.4058998464
1.4103786449
1.4262942495
1.4265966103
0.9910019611
0.9891517706
1.0391895039
1.0652443653
1.0804965829
1.0901152727
1.0963609671
1.1003533886
1.1027320232
1.1039142647
1.1042001677
1.1038189995
1.1029531158
1.1017526382
1.1003474927
1.0988541402
1.0973726267
1.0959715915
1.0946565679
1.0933239170
1.0917138981
1.0893844638
1.0857391463
1.0801482172
1.0721791104
1.0618808003
1.0499691922
1.0377187543
1.0265254250
1.0173988162
1.0107097582
1.0062866384
1.0036995993
1.0025285615
1.0018423767
1.3763325633
1.3773993556
1.3776486781
1.3781849800
1.3790812370
1.3804104898
1.3822169515
1.3844933333
1.3871665738
1.3900957570
1.3930825121
1.3958856754
1.3982397819
1.3998747985
1.4005267212
1.3999364328
1.3978217354
1.3937761957
1.3869748122
1.3752711575
1.3521637140
1.2808659984
1.1734248279
1.1682250378
1.1102682974
1.0779272998
1.0797696613
1.0870184742
1.0940700218
1.0996888840
1.1037200194
1.1063168809
1.1077129158
1.1081458327
1.1078302450
1.1069508933
1.1056636619
1.1041002793
1.1023774173
1.1006033835
1.0988766014
1.0972729771
1.0958154760
1.0944267772
1.0928773611
1.0907489977
1.0874468731
1.0823021602
1.0747898788
1.0648241467
1.0529917696
1.0405137433
1.0288461231
1.0191379795
1.0119011622
1.0070509960
1.0041857629
1.0028806284
1.0021095704
1.3761986201
1.3773384185
1.3775121768
1.3779042456
1.3786010493
1.3796920504
1.3812375072
1.3832426263
1.3856405733
1.3882883863
1.3909757791
1.3934373855
1.3953671768
1.3964309022
1.3962621910
1.3944351874
1.3903912358
1.3832646022
1.3715137747
1.3521572441
1.3192803508
1.2577100896
1.1717458402
1.1664989621
1.1368236210
1.1131246726
1.1054259225
1.1049921228
1.1070119926
1.1093857788
1.1112653186
1.1123690295
1.1126763089
1.1122803420
1.1113123404
1.1099069382
1.1081874757
1.1062621945
1.1042302390
1.1021877545
1.1002272396
1.0984269136
1.0968216121
1.0953547821
1.0938229250
1.0918309559
1.0887913733
1.0840106362
1.0768938561
1.0672439887
1.0555308006
1.0429122689
1.0308775754
1.0206872150
1.0129783199
1.0077508003
1.0046357146
1.0032090089
1.0023600582
1.3761503699
1.3773419704
1.3774530499
1.3777251678
1.3782555287
1.3791467394
1.3804718441
1.3822458524
1.3844064491
1.3868081967
1.3892300550
1.3913858865
1.3929364221
1.3934983237
1.3926352027
1.3898261304
1.3843979350
1.3753913060
1.3613489737
1.3400488683
1.3083879799
1.2621665011
1.2082277256
1.1830122046
1.1574347542
1.1368070771
1.1252980407
1.1202012853
1.1184959845
1.1181840280
1.1181580052
1.1178849034
1.1171670536
1.1159851629
1.1144001802
1.1125018076
1.1103827040
1.1081281162
1.1058194036
1.1035395866
1.1013733513
1.0993981298
1.0976562691
1.0961067981
1.0945673160
1.0926631740
1.0898164499
1.0853190537
1.0785253506
1.0691512675
1.0575679886
1.0448713475
1.0325648143
1.0219931709
1.0138979018
1.0083546922
1.0050276034
1.0034969011
1.0025805972
1.3761519936
1.3773783981
1.3774414117
1.3776213497
1.3780234742
1.3787602213
1.3799141931
1.3815076952
1.3834816833
1.3856886872
1.3878995004
1.3898127600
1.3910660281
1.3912445303
1.3898730788
1.3863911854
1.3801077881
1.3701258373
1.3552689792
1.3340968249
1.3052168851
1.2680785611
1.2277524053
1.1984296924
1.1733088557
1.1533001649
1.1398640938
1.1319352853
1.1276283106
1.1252782812
1.1237400118
1.1223492683
1.1207901286
1.1189602944
1.1168665089
1.1145629100
1.1121173487
1.1095960534
1.1070652965
1.1045965419
1.1022669641
1.1001519198
1.0982982256
1.0966759524
1.0951186273
1.0932679878
1.0905554323
1.0862650412
1.0797163581
1.0705616230
1.0590957879
1.0463614981
1.0338654029
1.0230118751
1.0146225567
1.0088347158
1.0053414332
1.0037286651
1.0027587378
1.3761767132
1.3774243403
1.3774549795
1.3775727475
1.3778882711
1.3785205476
1.3795585902
1.3810296457
1.3828769720
1.3849519502
1.3870203467
1.3887715537
1.3898296625
1.3897631408
1.3880794612
1.3842081439
1.3774752168
1.3670693183
1.3520465224
1.3314605513
1.3047504724
1.2725034273
1.2383375254
1.2089654408
1.1839529067
1.1638944979
1.1493730119
1.1397920535
1.1338405432
1.1301278637
1.1275495540
1.1253840539
1.1232433200
1.1209683422
1.1185272003
1.1159485015
1.1132824359
1.1105818186
1.1079023012
1.1053071387
1.1028680016
1.1006583985
1.0987277622
1.0970533613
1.0954794971
1.0936594136
1.0910317965
1.0868770256
1.0804930496
1.0714905464
1.0601127396
1.0473637893
1.0347487742
1.0237098269
1.0151227596
1.0091681678
1.0055606257
1.0038911607
1.0028839411
1.3762065366
1.3774642291
1.3774787678
1.3775656255
1.3778381522
1.3784187031
1.3793996257
1.3808108378
1.3825970464
1.3846095007
1.3866121255
1.3882907273
1.3892642789
1.3890953825
1.3872866476
1.3832680443
1.3763809991
1.3658629181
1.3508829984
1.3307096790
1.3050994239
1.2749485032
1.2431910065
1.2142120179
1.1892513158
1.1690503389
1.1539751990
1.1435805577
1.1367995910
1.1323893548
1.1292826873
1.1267352570
1.1243202469
1.1218449493
1.1192535687
1.1165590849
1.1138014874
1.1110265027
1.1082846386
1.1056354464
1.1031482916
1.1008961671