<VTKFile type="UnstructuredGrid" version="0.1">
	<UnstructuredGrid>
		<Piece NumberOfPoints="13548" NumberOfCells="3387">
			<CellData>
				<DataArray type="Int32" Name="ghost" NumberOfComponents="1" Format="ascii">
1
1
1
1
1
1
1
1
1
1
1
1
1
1
1
1
1
1
1
1
1
1
1
1
1
1
1
1
1
1
1
1
1
1
1
1
1
1
1
1
1
1
1
1
1
1
1
1
1
1
1
1
1
1
1
1
1
1
0
0
0
0
0
0
0
0
0
0
0
0
0
0
0
0
0
0
0
0
1
1
0
0
0
0
0
0
0
0
0
0
0
0
0
0
0
0
0
0
0
0
0
0
0
0
0
0
0
0
0
0
0
0
0
1
1
0
0
0
0
0
0
0
0
0
0
0
0
0
0
0
0
0
0
0
0
1
1
0
0
0
0
0
0
0
0
0
0
0
0
0
0
0
0
0
0
0
0
0
0
0
0
0
0
0
0
0
0
0
0
0
1
1
0
0
0
0
0
0
0
0
0
0
0
0
0
0
0
0
0
0
0
0
1
1
0
0
0
0
0
0
0
0
0
0
0
0
0
0
0
0
0
0
0
0
0
0
0
0
0
0
0
0
0
0
0
0
0
1
1
0
0
0
0
0
0
0
0
0
0
0
0
0
0
0
0
0
0
0
0
1
1
0
0
0
0
0
0
0
0
0
0
0
0
0
0
0
0
0
0
0
0
0
0
0
0
0
0
0
0
0
0
0
0
0
1
1
0
0
0
0
0
0
0
0
0
0
0
0
0
0
0
0
0
0
0
0
1
1
0
0
0
0
0
0
0
0
0
0
0
0
0
0
0
0
0
0
0
0
0
0
0
0
0
0
0
0
0
0
0
0
0
1
1
0
0
0
0
0
0
0
0
0
0
0
0
0
0
0
0
0
0
0
0
1
1
0
0
0
0
0
0
0
0
0
0
0
0
0
0
0
0
0
0
0
0
0
0
0
0
0
0
0
0
0
0
0
0
0
1
1
0
0
0
0
0
0
0
0
0
0
0
0
0
0
0
0
0
0
0
0
1
1
0
0
0
0
0
0
0
0
0
0
0
0
0
0
0
0
0
0
0
0
0
0
0
0
0
0
0
0
0
0
0
0
0
1
1
0
0
0
0
0
0
0
0
0
0
0
0
0
0
0
0
0
0
0
0
1
1
0
0
0
0
0
0
0
0
0
0
0
0
0
0
0
0
0
0
0
0
0
0
0
0
0
0
0
0
0
0
0
0
0
1
1
0
0
0
0
0
0
0
0
0
0
0
0
0
0
0
0
0
0
0
0
1
1
0
0
0
0
0
0
0
0
0
0
0
0
0
0
0
0
0
0
0
0
0
0
0
0
0
0
0
0
0
0
0
0
0
1
1
0
0
0
0
0
0
0
0
0
0
0
0
0
0
0
0
0
0
0
0
1
1
0
0
0
0
0
0
0
0
0
0
0
0
0
0
0
0
0
0
0
0
0
0
0
0
0
0
0
0
0
0
0
0
0
1
1
0
0
0
0
0
0
0
0
0
0
0
0
0
0
0
0
0
0
0
0
1
1
0
0
0
0
0
0
0
0
0
0
0
0
0
0
0
0
0
0
0
0
0
0
0
0
0
0
0
0
0
0
0
0
0
1
1
0
0
0
0
0
0
0
0
0
0
0
0
0
0
0
0
0
0
0
0
1
1
0
0
0
0
0
0
0
0
0
0
0
0
0
0
0
0
0
0
0
0
0
0
0
0
0
0
0
0
0
0
0
0
0
1
1
0
0
0
0
0
0
0
0
0
0
0
0
0
0
0
0
0
0
0
0
1
1
0
0
0
0
0
0
0
0
0
0
0
0
0
0
0
0
0
0
0
0
0
0
0
0
0
0
0
0
0
0
0
0
0
1
1
0
0
0
0
0
0
0
0
0
0
0
0
0
0
0
0
0
0
0
0
1
1
0
0
0
0
0
0
0
0
0
0
0
0
0
0
0
0
0
0
0
0
0
0
0
0
0
0
0
0
0
0
0
0
0
1
1
0
0
0
0
0
0
0
0
0
0
0
0
0
0
0
0
0
0
0
0
1
1
0
0
0
0
0
0
0
0
0
0
0
0
0
0
0
0
0
0
0
0
0
0
0
0
0
0
0
0
0
0
0
0
0
1
1
0
0
0
0
0
0
0
0
0
0
0
0
0
0
0
0
0
0
0
0
1
1
0
0
0
0
0
0
0
0
0
0
0
0
0
0
0
0
0
0
0
0
0
0
0
0
0
0
0
0
0
0
0
0
0
1
1
0
0
0
0
0
0
0
0
0
0
0
0
0
0
0
0
0
0
0
0
1
1
0
0
0
0
0
0
0
0
0
0
0
0
0
0
0
0
0
0
0
0
0
0
0
0
0
0
0
0
0
0
0
0
0
1
1
0
0
0
0
0
0
0
0
0
0
0
0
0
0
0
0
0
0
0
0
1
1
0
0
0
0
0
0
0
0
0
0
0
0
0
0
0
0
0
0
0
0
0
0
0
0
0
0
0
0
0
0
0
0
0
1
1
0
0
0
0
0
0
0
0
0
0
0
0
0
0
0
0
0
0
0
0
1
1
0
0
0
0
0
0
0
0
0
0
0
0
0
0
0
0
0
0
0
0
0
0
0
0
0
0
0
0
0
0
0
0
0
1
1
0
0
0
0
0
0
0
0
0
0
0
0
0
0
0
0
0
0
0
0
1
1
0
0
0
0
0
0
0
0
0
0
0
0
0
0
0
0
0
0
0
0
0
0
0
0
0
0
0
0
0
0
0
0
0
1
1
0
0
0
0
0
0
0
0
0
0
0
0
0
0
0
0
0
0
0
0
1
1
0
0
0
0
0
0
0
0
0
0
0
0
0
0
0
0
0
0
0
0
0
0
0
0
0
0
0
0
0
0
0
0
0
1
1
0
0
0
0
0
0
0
0
0
0
0
0
0
0
0
0
0
0
0
0
1
1
0
0
0
0
0
0
0
0
0
0
0
0
0
0
0
0
0
0
0
0
0
0
0
0
0
0
0
0
0
0
0
0
0
1
1
0
0
0
0
0
0
0
0
0
0
0
0
0
0
0
0
0
0
0
0
1
1
0
0
0
0
0
0
0
0
0
0
0
0
0
0
0
0
0
0
0
0
0
0
0
0
0
0
0
0
0
0
0
0
0
1
1
0
0
0
0
0
0
0
0
0
0
0
0
0
0
0
0
0
0
0
0
1
1
0
0
0
0
0
0
0
0
0
0
0
0
0
0
0
0
0
0
0
0
0
0
0
0
0
0
0
0
0
0
0
0
0
1
1
0
0
0
0
0
0
0
0
0
0
0
0
0
0
0
0
0
0
0
0
0
1
1
0
0
0
0
0
0
0
0
0
0
0
0
0
0
0
0
0
0
0
0
0
0
0
0
0
0
0
0
0
0
0
0
0
0
1
1
0
0
0
0
0
0
0
0
0
0
0
0
0
0
0
0
0
0
0
0
0
0
0
0
0
0
0
0
0
0
0
0
0
0
0
0
0
0
0
0
0
0
0
0
0
0
0
0
0
0
0
0
0
0
0
0
0
1
1
0
0
0
0
0
0
0
0
0
0
0
0
0
0
0
0
0
0
0
0
0
0
0
0
0
0
0
0
0
0
0
0
0
0
0
0
0
0
0
0
0
0
0
0
0
0
0
0
0
0
0
0
0
0
0
0
0
1
1
0
0
0
0
0
0
0
0
0
0
0
0
0
0
0
0
0
0
0
0
0
0
0
0
0
0
0
0
0
0
0
0
0
0
0
0
0
0
0
0
0
0
0
0
0
0
0
0
0
0
0
0
0
0
0
0
0
1
1
0
0
0
0
0
0
0
0
0
0
0
0
0
0
0
0
0
0
0
0
0
0
0
0
0
0
0
0
0
0
0
0
0
0
0
0
0
0
0
0
0
0
0
0
0
0
0
0
0
0
0
0
0
0
0
0
0
1
1
0
0
0
0
0
0
0
0
0
0
0
0
0
0
0
0
0
0
0
0
0
0
0
0
0
0
0
0
0
0
0
0
0
0
0
0
0
0
0
0
0
0
0
0
0
0
0
0
0
0
0
0
0
0
0
0
0
1
1
0
0
0
0
0
0
0
0
0
0
0
0
0
0
0
0
0
0
0
0
0
0
0
0
0
0
0
0
0
0
0
0
0
0
0
0
0
0
0
0
0
0
0
0
0
0
0
0
0
0
0
0
0
0
0
0
0
1
1
0
0
0
0
0
0
0
0
0
0
0
0
0
0
0
0
0
0
0
0
0
0
0
0
0
0
0
0
0
0
0
0
0
0
0
0
0
0
0
0
0
0
0
0
0
0
0
0
0
0
0
0
0
0
0
0
0
1
1
0
0
0
0
0
0
0
0
0
0
0
0
0
0
0
0
0
0
0
0
0
0
0
0
0
0
0
0
0
0
0
0
0
0
0
0
0
0
0
0
0
0
0
0
0
0
0
0
0
0
0
0
0
0
0
0
0
1
1
0
0
0
0
0
0
0
0
0
0
0
0
0
0
0
0
0
0
0
0
0
0
0
0
0
0
0
0
0
0
0
0
0
0
0
0
0
0
0
0
0
0
0
0
0
0
0
0
0
0
0
0
0
0
0
0
0
1
1
0
0
0
0
0
0
0
0
0
0
0
0
0
0
0
0
0
0
0
0
0
0
0
0
0
0
0
0
0
0
0
0
0
0
0
0
0
0
0
0
0
0
0
0
0
0
0
0
0
0
0
0
0
0
0
0
0
1
1
0
0
0
0
0
0
0
0
0
0
0
0
0
0
0
0
0
0
0
0
0
1
1
0
0
0
0
0
0
0
0
0
0
0
0
0
0
0
0
0
0
0
0
0
0
0
0
0
0
0
0
0
0
0
0
0
0
1
1
0
0
0
0
0
0
0
0
0
0
0
0
0
0
0
0
0
0
0
0
1
1
0
0
0
0
0
0
0
0
0
0
0
0
0
0
0
0
0
0
0
0
0
0
0
0
0
0
0
0
0
0
0
0
0
1
1
0
0
0
0
0
0
0
0
0
0
0
0
0
0
0
0
0
0
0
0
1
1
0
0
0
0
0
0
0
0
0
0
0
0
0
0
0
0
0
0
0
0
0
0
0
0
0
0
0
0
0
0
0
0
0
1
1
0
0
0
0
0
0
0
0
0
0
0
0
0
0
0
0
0
0
0
0
1
1
0
0
0
0
0
0
0
0
0
0
0
0
0
0
0
0
0
0
0
0
0
0
0
0
0
0
0
0
0
0
0
0
0
1
1
0
0
0
0
0
0
0
0
0
0
0
0
0
0
0
0
0
0
0
0
1
1
0
0
0
0
0
0
0
0
0
0
0
0
0
0
0
0
0
0
0
0
0
0
0
0
0
0
0
0
0
0
0
0
0
1
1
0
0
0
0
0
0
0
0
0
0
0
0
0
0
0
0
0
0
0
0
1
1
0
0
0
0
0
0
0
0
0
0
0
0
0
0
0
0
0
0
0
0
0
0
0
0
0
0
0
0
0
0
0
0
0
1
1
0
0
0
0
0
0
0
0
0
0
0
0
0
0
0
0
0
0
0
0
1
1
0
0
0
0
0
0
0
0
0
0
0
0
0
0
0
0
0
0
0
0
0
0
0
0
0
0
0
0
0
0
0
0
0
1
1
0
0
0
0
0
0
0
0
0
0
0
0
0
0
0
0
0
0
0
0
1
1
0
0
0
0
0
0
0
0
0
0
0
0
0
0
0
0
0
0
0
0
0
0
0
0
0
0
0
0
0
0
0
0
0
1
1
0
0
0
0
0
0
0
0
0
0
0
0
0
0
0
0
0
0
0
0
1
1
0
0
0
0
0
0
0
0
0
0
0
0
0
0
0
0
0
0
0
0
0
0
0
0
0
0
0
0
0
0
0
0
0
1
1
0
0
0
0
0
0
0
0
0
0
0
0
0
0
0
0
0
0
0
0
1
1
0
0
0
0
0
0
0
0
0
0
0
0
0
0
0
0
0
0
0
0
0
0
0
0
0
0
0
0
0
0
0
0
0
1
1
0
0
0
0
0
0
0
0
0
0
0
0
0
0
0
0
0
0
0
0
1
1
0
0
0
0
0
0
0
0
0
0
0
0
0
0
0
0
0
0
0
0
0
0
0
0
0
0
0
0
0
0
0
0
0
1
1
0
0
0
0
0
0
0
0
0
0
0
0
0
0
0
0
0
0
0
0
1
1
0
0
0
0
0
0
0
0
0
0
0
0
0
0
0
0
0
0
0
0
0
0
0
0
0
0
0
0
0
0
0
0
0
1
1
0
0
0
0
0
0
0
0
0
0
0
0
0
0
0
0
0
0
0
0
1
1
0
0
0
0
0
0
0
0
0
0
0
0
0
0
0
0
0
0
0
0
0
0
0
0
0
0
0
0
0
0
0
0
0
1
1
0
0
0
0
0
0
0
0
0
0
0
0
0
0
0
0
0
0
0
0
1
1
0
0
0
0
0
0
0
0
0
0
0
0
0
0
0
0
0
0
0
0
0
0
0
0
0
0
0
0
0
0
0
0
0
1
1
0
0
0
0
0
0
0
0
0
0
0
0
0
0
0
0
0
0
0
0
1
1
0
0
0
0
0
0
0
0
0
0
0
0
0
0
0
0
0
0
0
0
0
0
0
0
0
0
0
0
0
0
0
0
0
1
1
0
0
0
0
0
0
0
0
0
0
0
0
0
0
0
0
0
0
0
0
1
1
0
0
0
0
0
0
0
0
0
0
0
0
0
0
0
0
0
0
0
0
0
0
0
0
0
0
0
0
0
0
0
0
0
1
1
0
0
0
0
0
0
0
0
0
0
0
0
0
0
0
0
0
0
0
0
1
1
0
0
0
0
0
0
0
0
0
0
0
0
0
0
0
0
0
0
0
0
0
0
0
0
0
0
0
0
0
0
0
0
0
1
1
0
0
0
0
0
0
0
0
0
0
0
0
0
0
0
0
0
0
0
0
1
1
0
0
0
0
0
0
0
0
0
0
0
0
0
0
0
0
0
0
0
0
0
0
0
0
0
0
0
0
0
0
0
0
0
1
1
0
0
0
0
0
0
0
0
0
0
0
0
0
0
0
0
0
0
0
0
1
1
0
0
0
0
0
0
0
0
0
0
0
0
0
0
0
0
0
0
0
0
0
0
0
0
0
0
0
0
0
0
0
0
0
1
1
0
0
0
0
0
0
0
0
0
0
0
0
0
0
0
0
0
0
0
0
1
1
0
0
0
0
0
0
0
0
0
0
0
0
0
0
0
0
0
0
0
0
0
0
0
0
0
0
0
0
0
0
0
0
0
1
1
0
0
0
0
0
0
0
0
0
0
0
0
0
0
0
0
0
0
0
0
1
1
0
0
0
0
0
0
0
0
0
0
0
0
0
0
0
0
0
0
0
0
0
0
0
0
0
0
0
0
0
0
0
0
0
1
1
0
0
0
0
0
0
0
0
0
0
0
0
0
0
0
0
0
0
0
0
1
1
0
0
0
0
0
0
0
0
0
0
0
0
0
0
0
0
0
0
0
0
0
0
0
0
0
0
0
0
0
0
0
0
0
1
1
1
1
1
1
1
1
1
1
1
1
1
1
1
1
1
1
1
1
1
1
1
1
1
1
1
1
1
1
1
1
1
1
1
1
1
1
1
1
1
1
1
1
1
1
1
1
1
1
1
1
1
1
1
1
1
1
				</DataArray>
				<DataArray type="Float64" Name="h" NumberOfComponents="1" Format="ascii">
1.1505623240
1.1496522197
1.1496599807
1.1496745113
1.1496944978
1.1497180878
1.1497430586
1.1497670746
1.1497878115
1.1498031924
1.1498116202
1.1498121046
1.1498044190
1.1497891408
1.1497676282
1.1497419433
1.1497145991
1.1496883470
1.1496659079
1.1496495832
1.1496410715
1.1496410715
1.1972647673
1.1978972560
1.1980426339
1.1983565228
1.1988404711
1.1994953375
1.2003205706
1.2013130088
1.2024674396
1.2037761878
1.2052286589
1.2068120491
1.2085112646
1.2103090818
1.2121868116
1.2141244132
1.2161010411
1.2180955288
1.2200865408
1.2220531313
1.2239751075
1.2258331152
1.2276093557
1.2292875261
1.2308528095
1.2322924649
1.2335954687
1.2347523496
1.2357556215
1.2365992169
1.2372782378
1.2377893018
1.2381299111
1.2382982623
1.2382982623
1.1496522197
1.1487283253
1.1487448787
1.1487767977
1.1488223855
1.1488792237
1.1489443468
1.1490145116
1.1490863385
1.1491565617
1.1492222848
1.1492811366
1.1493314535
1.1493723583
1.1494037773
1.1494264001
1.1494414698
1.1494506118
1.1494555965
1.1494579832
1.1494589616
1.1496410715
1.1978972560
1.1985688212
1.1986827219
1.1989366444
1.1993364955
1.1998888720
1.2005996610
1.2014721598
1.2025070796
1.2037017523
1.2050494531
1.2065400622
1.2081600632
1.2098928409
1.2117195342
1.2136193466
1.2155702667
1.2175497150
1.2195347809
1.2215029341
1.2234324382
1.2253024900
1.2270939708
1.2287893991
1.2303729266
1.2318309377
1.2331516796
1.2343250839
1.2353431944
1.2361995802
1.2368890704
1.2374080926
1.2377540194
1.2379249655
1.2382982623
1.1495101118
1.1485987093
1.1486155966
1.1486481927
1.1486948145
1.1487530610
1.1488199829
1.1488923477
1.1489667756
1.1490399842
1.1491090405
1.1491715124
1.1492256509
1.1492704696
1.1493057662
1.1493320882
1.1493505312
1.1493625770
1.1493698666
1.1493738530
1.1493756501
1.1495414117
1.1979687617
1.1986476616
1.1987637985
1.1990221225
1.1994283195
1.1999886850
1.2007087505
1.2015914283
1.2026370422
1.2038425529
1.2052008965
1.2067016574
1.2083310716
1.2100723292
1.2119064283
1.2138124820
1.2157684370
1.2177517272
1.2197394111
1.2217089985
1.2236388694
1.2255083698
1.2272985502
1.2289921013
1.2305733427
1.2320288186
1.2333469264
1.2345177337
1.2355334035
1.2363876062
1.2370752547
1.2375928425
1.2379377914
1.2381082477
1.2384769280
1.1492255802
1.1483388640
1.1483563970
1.1483903030
1.1484389264
1.1484999007
1.1485703094
1.1486469417
1.1487264183
1.1488054262
1.1488809602
1.1489504709
1.1490120426
1.1490644764
1.1491073191
1.1491408407
1.1491658493
1.1491835474
1.1491953236
1.1492024238
1.1492058147
1.1493391073
1.1980982288
1.1987918892
1.1989128208
1.1991805656
1.1996003277
1.2001777471
1.2009175807
1.2018219045
1.2028902003
1.2041186250
1.2054993828
1.2070214243
1.2086704623
1.2104292829
1.2122786002
1.2141973564
1.2161634367
1.2181543325
1.2201471462
1.2221195396
1.2240501318
1.2259185556
1.2277061835
1.2293960382
1.2309727646
1.2324232206
1.2337360978
1.2349017339
1.2359125316
1.2367623673
1.2374463252
1.2379610351
1.2383040199
1.2384734925
1.2388334756
1.1487999850
1.1479497358
1.1479681725
1.1480039135
1.1480553448
1.1481201520
1.1481954695
1.1482781216
1.1483647336
1.1484519514
1.1485366702
1.1486161741
1.1486883106
1.1487515772
1.1488051622
1.1488489379
1.1488833008
1.1489090539
1.1489272247
1.1489387630
1.1489444254
1.1490294822
1.1982879139
1.1990035685
1.1991318121
1.1994139052
1.1998543114
1.2004576636
1.2012275292
1.2021646986
1.2032673613
1.2045304403
1.2059450184
1.2074990785
1.2091775386
1.2109625755
1.2128344802
1.2147719479
1.2167527866
1.2187545906
1.2207545705
1.2227306718
1.2246618837
1.2265282660
1.2283116679
1.2299956060
1.2315652141
1.2330078194
1.2343125538
1.2354701598
1.2364734026
1.2373164715
1.2379947135
1.2385049672
1.2388449111
1.2390128609
1.2393613626
1.1482354585
1.1474328458
1.1474523660
1.1474903111
1.1475451232
1.1476145586
1.1476958229
1.1477857916
1.1478811037
1.1479783611
1.1480743405
1.1481661232
1.1482512649
1.1483278866
1.1483947298
1.1484511718
1.1484970963
1.1485328087
1.1485588866
1.1485759133
1.1485843842
1.1486059926
1.1985405028
1.1992851251
1.1994231495
1.1997244053
1.2001923583
1.2008302847
1.2016401477
1.2026210064
1.2037693085
1.2050783158
1.2065376045
1.2081338601
1.2098509398
1.2116702123
1.2135714133
1.2155329246
1.2175324659
1.2195477883
1.2215562814
1.2235363126
1.2254673870
1.2273301370
1.2291070429
1.2307822806
1.2323416387
1.2337730754
1.2350663121
1.2362126331
1.2372052902
1.2380388963
1.2387091549
1.2392131896
1.2395488917
1.2397147181
1.2400507909
1.1475351674
1.1467905523
1.1468112363
1.1468515558
1.1469100241
1.1469844893
1.1470722506
1.1471702552
1.1472751712
1.1473835623
1.1474920804
1.1475975832
1.1476972980
1.1477889191
1.1478706785
1.1479413883
1.1480003464
1.1480472909
1.1480822880
1.1481055044
1.1481171424
1.1480608954
1.1988588544
1.1996390995
1.1997893140
1.2001144062
1.2006165878
1.2012974285
1.2021568746
1.2031918078
1.2043964863
1.2057620857
1.2072762935
1.2089241750
1.2106882678
1.2125489423
1.2144852594
1.2164752339
1.2184964902
1.2205270160
1.2225444600
1.2245277587
1.2264570841
1.2283138059
1.2300811902
1.2317442364
1.2332895574
1.2347059064
1.2359837477
1.2371150482
1.2380936720
1.2389147667
1.2395744891
1.2400703258
1.2404004403
1.2405634711
1.2408884265
1.1467037164
1.1460264633
1.1460482736
1.1460909030
1.1461529529
1.1462323859
1.1463266204
1.1464327025
1.1465473515
1.1466671105
1.1467885141
1.1469081930
1.1470230327
1.1471302741
1.1472276072
1.1473132394
1.1473858434
1.1474445515
1.1474888910
1.1475185893
1.1475335404
1.1473861428
1.1992464473
1.2000685968
1.2002333279
1.2005867371
1.2011295277
1.2018612146
1.2027793149
1.2038780880
1.2051491564
1.2065811870
1.2081596032
1.2098675342
1.2116859502
1.2135940492
1.2155701167
1.2175917568
1.2196365121
1.2216827188
1.2237083814
1.2256931634
1.2276180564
1.2294653501
1.2312192656
1.2328657860
1.2343925151
1.2357891647
1.2370470971
1.2381591035
1.2391197865
1.2399249393
1.2405712672
1.2410566975
1.2413797260
1.2415392143
1.2418568913
1.1457472074
1.1451454962
1.1451682663
1.1452128839
1.1452780570
1.1453618882
1.1454619469
1.1455754099
1.1456990812
1.1458295115
1.1459631411
1.1460963907
1.1462258106
1.1463481915
1.1464606761
1.1465608616
1.1466467889
1.1467169879
1.1467704453
1.1468064662
1.1468246470
1.1465742927
1.1997062755
1.2005761974
1.2007576717
1.2011436487
1.2017330705
1.2025230518
1.2035082685
1.2046799129
1.2060265259
1.2075338461
1.2091846620
1.2109598613
1.2128386140
1.2147987930
1.2168178279
1.2188728847
1.2209414755
1.2230024177
1.2250342146
1.2270174029
1.2289339701
1.2307673045
1.2325027815
1.2341275297
1.2356303014
1.2370019257
1.2382348132
1.2393227182
1.2402611051
1.2410465197
1.2416763076
1.2421489113
1.2424632163
1.2426183475
1.2429351802
1.1446736584
1.1441542985
1.1441777290
1.1442237482
1.1442911918
1.1443783327
1.1444829277
1.1446023257
1.1447334575
1.1448729231
1.1450171081
1.1451622561
1.1453046139
1.1454405468
1.1455666749
1.1456800096
1.1457779904
1.1458585776
1.1459202658
1.1459619746
1.1459830564
1.1456198885
1.2002404267
1.2011635317
1.2013638546
1.2017863748
1.2024280271
1.2032831838
1.2043432682
1.2055959613
1.2070262756
1.2086166026
1.2103467328
1.2121950186
1.2141386180
1.2161539499
1.2182175272
1.2203060969
1.2223972140
1.2244703539
1.2265046937
1.2284818075
1.2303848503
1.2321985116
1.2339095105
1.2355063124
1.2369789666
1.2383195640
1.2395217029
1.2405802295
1.2414915834
1.2422531621
1.2428630352
1.2433202272
1.2436240656
1.2437739750
1.2440988486
1.1434933545
1.1430616257
1.1430852887
1.1431318673
1.1432003498
1.1432892147
1.1433964502
1.1435196272
1.1436558558
1.1438018415
1.1439539663
1.1441083490
1.1442609813
1.1444078481
1.1445450947
1.1446691961
1.1447770494
1.1448661130
1.1449344798
1.1449807743
1.1450041665
1.1445207385
1.2008504287
1.2018316139
1.2020527320
1.2025154239
1.2032143829
1.2041409049
1.2052827535
1.2066236535
1.2081446415
1.2098243461
1.2116392041
1.2135647570
1.2155759641
1.2176476884
1.2197555077
1.2218758079
1.2239864923
1.2260673498
1.2280990106
1.2300640704
1.2319470485
1.2337341251
1.2354135648
1.2369753510
1.2384109984
1.2397139825
1.2408792082
1.2419027237
1.2427820406
1.2435154905
1.2441019374
1.2445410424
1.2448326171
1.2449764162
1.2453203102
1.1422188872
1.1418784117
1.1419017667
1.1419478397
1.1420158008
1.1421043761
1.1422118375
1.1423360369
1.1424743301
1.1426235914
1.1427802666
1.1429404137
1.1430998253
1.1432541671
1.1433991642
1.1435308184
1.1436455652
1.1437404647
1.1438133142
1.1438626139
1.1438874981
1.1432792092
1.2015361446
1.2025797315
1.2028233981
1.2033294839
1.2040902288
1.2050935341
1.2063231020
1.2077582556
1.2093756053
1.2111496009
1.2130529800
1.2150582170
1.2171379115
1.2192653110
1.2214150930
1.2235633891
1.2256885940
1.2277711130
1.2297932415
1.2317388127
1.2335939185
1.2353464221
1.2369863198
1.2385052943
1.2398964728
1.2411548449
1.2422767123
1.2432594084
1.2441015868
1.2448025739
1.2453620773
1.2457804322
1.2460579626
1.2461947746
1.2465702082
1.1408654244
1.1406180788
1.1406405006
1.1406848359
1.1407504718
1.1408364314
1.1409413320
1.1410633789
1.1412002455
1.1413490541
1.1415063905
1.1416683137
1.1418304851
1.1419883002
1.1421371136
1.1422725149
1.1423905457
1.1424879893
1.1425625315
1.1426127366
1.1426379682
1.1419034392
1.2022953250
1.2034049734
1.2036726988
1.2042249183
1.2050512493
1.2061359077
1.2074581408
1.2089924205
1.2107104736
1.2125821524
1.2145761585
1.2166616638
1.2188087869
1.2209891511
1.2231766195
1.2253472558
1.2274801100
1.2295566233
1.2315607397
1.2334780766
1.2352964065
1.2370054808
1.2385971930
1.2400650751
1.2414040110
1.2426106003
1.2436826208
1.2446187406
1.2454187932
1.2460831290
1.2466123228
1.2470073985
1.2472692038
1.2473982047
1.2478185368
1.1394506433
1.1392965373
1.1393173536
1.1393586279
1.1394200056
1.1395008654
1.1396002446
1.1397167805
1.1398485532
1.1399930209
1.1401469790
1.1403065626
1.1404673464
1.1406244840
1.1407729772
1.1409080052
1.1410252528
1.1411212953
1.1411939254
1.1412420665
1.1412658839
1.1404070229
1.2031238968
1.2043024893
1.2045954557
1.2051959470
1.2060908692
1.2072605077
1.2086792725
1.2103163248
1.2121380325
1.2141092243
1.2161942379
1.2183587365
1.2205702818
1.2227989222
1.2250178593
1.2272032774
1.2293352287
1.2313964938
1.2333728995
1.2352521393
1.2370239486
1.2386801353
1.2402146454
1.2416229873
1.2429018943
1.2440496581
1.2450655726
1.2459496643
1.2467029472
1.2473267900
1.2478226257
1.2481921555
1.2484367407
1.2485572025
1.2490358496
1.1379944147
1.1379319360
1.1379504753
1.1379873702
1.1380425727
1.1381158881
1.1382068551
1.1383146414
1.1384378337
1.1385743100
1.1387211640
1.1388746585
1.1390302941
1.1391829647
1.1393272439
1.1394577852
1.1395697858
1.1396595525
1.1397259991
1.1397693146
1.1397904685
1.1388155912
1.2040149394
1.2052644554
1.2055833890
1.2062335419
1.2071991672
1.2084564468
1.2099745764
1.2117169151
1.2136439606
1.2157150711
1.2178898977
1.2201304204
1.2224016197
1.2246720825
1.2269145502
1.2291056225
1.2312266918
1.2332623443
1.2352004280
1.2370309238
1.2387459893
1.2403396001
1.2418078916
1.2431484338
1.2443598770
1.2454422296
1.2463963147
1.2472235008
1.2479259487
1.2485060031
1.2489659129
1.2493080156
1.2495341544
1.2496454851
1.2501951399
1.1365186036
1.1365445256
1.1365601708
1.1365914807
1.1366387723
1.1367023543
1.1367823695
1.1368786261
1.1369903202
1.1371158622
1.1372527206
1.1373973071
1.1375450278
1.1376903811
1.1378272916
1.1379493078
1.1380519982
1.1381330828
1.1381911454
1.1382270981
1.1382435518
1.1371628880
1.2049582872
1.2062796619
1.2066245877
1.2073247962
1.2083622147
1.2097088477
1.2113282808
1.2131775082
1.2152105701
1.2173808612
1.2196430219
1.2219552054
1.2242798449
1.2265842366
1.2288409575
1.2310273775
1.2331266701
1.2351255456
1.2370141704
1.2387851203
1.2404331353
1.2419546787
1.2433481326
1.2446131932
1.2457504394
1.2467615880
1.2476489511
1.2484151877
1.2490635332
1.2495972311
1.2500192716
1.2503325591
1.2505393643
1.2506411416
1.2512730624
1.1350463975
1.1351560536
1.1351682960
1.1351930368
1.1352310210
1.1352831575
1.1353503055
1.1354330345
1.1355312890
1.1356441215
1.1357694405
1.1359038292
1.1360424647
1.1361791963
1.1363064965
1.1364192727
1.1365123755
1.1365820113
1.1366272873
1.1366509768
1.1366592029
1.1354855661
1.2059408706
1.2073338652
1.2077035969
1.2084527981
1.2095618725
1.2109986821
1.2127207165
1.2146778878
1.2168170525
1.2190850642
1.2214312052
1.2238096991
1.2261805253
1.2285099509
1.2307707630
1.2329415821
1.2350076862
1.2369583724
1.2387864269
1.2404872165
1.2420583637
1.2434989649
1.2448097674
1.2459925982
1.2470499494
1.2479851817
1.2488020188
1.2495043126
1.2500962657
1.2505819099
1.2509648719
1.2512485285
1.2514355031
1.2515274986
1.2522509288
1.1336016001
1.1337891121
1.1337976016
1.1338151076
1.1338428809
1.1338825338
1.1339357705
1.1340040785
1.1340882970
1.1341882487
1.1343023646
1.1344273516
1.1345579266
1.1346867086
1.1348077718
1.1349132882
1.1349959996
1.1350509481
1.1350776799
1.1350819545
1.1350759550
1.1338249292
1.2069462774
1.2084094061
1.2088004619
1.2095953085
1.2107744186
1.2123015774
1.2141274070
1.2161937056
1.2184391800
1.2208034193
1.2232299688
1.2256690473
1.2280783665
1.2304235327
1.2326780239
1.2348222038
1.2368438374
1.2387352352
1.2404920998
1.2421129269
1.2435983218
1.2449501784
1.2461716977
1.2472668218
1.2482398892
1.2490958101
1.2498395957
1.2504761588
1.2510105261
1.2514473788
1.2517908505
1.2520446754
1.2522117382
1.2522939279
1.2531157014
1.1322080458
1.1324665810
1.1324711630
1.1324811674
1.1324984303
1.1325253872
1.1325647442
1.1326190763
1.1326902951
1.1327791556
1.1328847035
1.1330036532
1.1331301029
1.1332581406
1.1333785071
1.1334805640
1.1335540046
1.1335915004
1.1335922504
1.1335657048
1.1335341277
1.1322232404
1.2079555272
1.2094860770
1.2098902293
1.2107235213
1.2119692289
1.2135867789
1.2155184239
1.2176961920
1.2200492929
1.2225091360
1.2250131032
1.2275074077
1.2299477795
1.2322996621
1.2345377908
1.2366448443
1.2386114532
1.2404333163
1.2421094843
1.2436417589
1.2450339120
1.2462907135
1.2474178333
1.2484213127
1.2493072371
1.2500819300
1.2507515386
1.2513218717
1.2517986114
1.2521869260
1.2524913090
1.2527157213
1.2528632066
1.2529357693
1.2538600992
1.1308885917
1.1312106320
1.1312113707
1.1312140429
1.1312211614
1.1312361185
1.1312627943
1.1313050473
1.1313660889
1.1314478017
1.1315499037
1.1316692531
1.1318017630
1.1319387327
1.1320679731
1.1321746250
1.1322434326
1.1322620557
1.1322265966
1.1321495565
1.1320689735
1.1307169063
1.2089498725
1.2105441014
1.2109426701
1.2118004368
1.2131071966
1.2148161980
1.2168580957
1.2191523766
1.2216168032
1.2241735708
1.2267534370
1.2292987341
1.2317636782
1.2341141665
1.2363268854
1.2383874593
1.2402897662
1.2420332959
1.2436207799
1.2450576013
1.2463507889
1.2475080141
1.2485374158
1.2494470496
1.2502446371
1.2509377540
1.2515335046
1.2520384095
1.2524586205
1.2527996173
1.2530660947
1.2532621031
1.2533907369
1.2534540409
1.2544824844
1.1296643967
1.1300420043
1.1300391826
1.1300351331
1.1300331383
1.1300376937
1.1300540327
1.1300875466
1.1301429801
1.1302235439
1.1303299854
1.1304616935
1.1306130837
1.1307734462
1.1309268148
1.1310527392
1.1311277128
1.1311291202
1.1310433395
1.1308808434
1.1307002397
1.1293263824
1.2099165159
1.2115701602
1.2119203893
1.2127767361
1.2141373015
1.2159424281
1.2181043299
1.2205251599
1.2231087776
1.2257669056
1.2284236049
1.2310175344
1.2335021575
1.2358446711
1.2380244904
1.2400308985
1.2418614360
1.2435197090
1.2450125288
1.2463490251
1.2475395690
1.2485947336
1.2495250444
1.2503404794
1.2510502497
1.2516630090
1.2521866275
1.2526281431
1.2529939849
1.2532897660
1.2535202229
1.2536893584
1.2538002103
1.2538547881
1.2549863762
1.1285543739
1.1289794249
1.1289735258
1.1289637635
1.1289542850
1.1289508256
1.1289601771
1.1289894930
1.1290452562
1.1291326480
1.1292555428
1.1294134838
1.1296006847
1.1298045411
1.1300053102
1.1301751257
1.1302775756
1.1302709204
1.1301175896
1.1298079792
1.1294120186
1.1280367194
1.2108630075
1.2125723284
1.2127739977
1.2135828566
1.2149912272
1.2169065254
1.2192083732
1.2217743090
1.2244910643
1.2272594477
1.2299969278
1.2326396304
1.2351410965
1.2374709441
1.2396123244
1.2415589252
1.2433124087
1.2448807879
1.2462752708
1.2475088864
1.2485953752
1.2495481587
1.2503800474
1.2511028031
1.2517269655
1.2522620863
1.2527166072
1.2530978915
1.2534124592
1.2536658857
1.2538627981
1.2540070240
1.2541014436
1.2541479612
1.2553794283
1.1275743368
1.1280387326
1.1280303903
1.1280162278
1.1280013401
1.1279928163
1.1279991735
1.1280294296
1.1280928886
1.1281979192
1.1283500523
1.1285505921
1.1287943292
1.1290683831
1.1293499604
1.1296024826
1.1297719861
1.1297848653
1.1295515754
1.1289906076
1.1281101447
1.1267563827
1.2118512909
1.2136151512
1.2134269680
1.2141119679
1.2155744962
1.2176355157
1.2201159588
1.2228584885
1.2257307763
1.2286233500
1.2314490741
1.2341430267
1.2366607338
1.2389754307
1.2410749404
1.2429583361
1.2446318940
1.2461082723
1.2474032951
1.2485339754
1.2495173930
1.2503697214
1.2511059189
1.2517393627
1.2522817525
1.2527433461
1.2531329794
1.2534581599
1.2537253311
1.2539398779
1.2541061854
1.2542277945
1.2543073416
1.2543465640
1.2556726413
1.1267365665
1.1272324566
1.1272223725
1.1272052211
1.1271870581
1.1271765147
1.1271841642
1.1272218808
1.1273016688
1.1274346084
1.1276293204
1.1278899943
1.1282141290
1.1285913103
1.1289981403
1.1293918621
1.1296998664
1.1298034028
1.1295134315
1.1285451497
1.1265378930
1.1252355886
1.2130782679
1.2149022425
1.2137280982
1.2141824806
1.2157517777
1.2180411623
1.2207706669
1.2237398718
1.2267998049
1.2298355646
1.2327597785
1.2355093997
1.2380442611
1.2403431515
1.2423997869
1.2442189454
1.2458121702
1.2471970611
1.2483941442
1.2494243863
1.2503081226
1.2510641333
1.2517093532
1.2522585968
1.2527245305
1.2531179487
1.2534479054
1.2537219006
1.2539461588
1.2541257516
1.2542647161
1.2543662203
1.2544325895
1.2544653460
1.2558790915
1.1260490175
1.1265686274
1.1265575886
1.1265390702
1.1265203419
1.1265116678
1.1265257118
1.1265769263
1.1266802986
1.1268504070
1.1270999598
1.1274375520
1.1278665471
1.1283828247
1.1289693055
1.1295876398
1.1301604379
1.1305324124
1.1303764889
1.1289559661
1.1245127317
1.1232959028
1.2150685081
1.2169731123
1.2133079346
1.2134568856
1.2153270737
1.2180245500
1.2211241034
1.2243924450
1.2276806177
1.2308815436
1.2339146284
1.2367251572
1.2392786926
1.2415620559
1.2435762383
1.2453326315
1.2468479447
1.2481445309
1.2492478163
1.2501826545
1.2509724445
1.2516383896
1.2521991990
1.2526709248
1.2530670254
1.2533986610
1.2536749621
1.2539032917
1.2540895503
1.2542384067
1.2543534782
1.2544375034
1.2544924544
1.2545196078
1.2560127180
1.1255184818
1.1260539731
1.1260428747
1.1260247968
1.1260080339
1.1260044264
1.1260287836
1.1260981055
1.1262306177
1.1264448865
1.1267584642
1.1271859671
1.1277395604
1.1284270964
1.1292504793
1.1302048916
1.1312792101
1.1324636627
1.1337782225
1.1353662936
1.1378377452
1.1459326311
1.1594237908
1.1586069342
1.1903980662
1.2017304099
1.2062778597
1.2100557901
1.2137250913
1.2174252396
1.2211403592
1.2248120496
1.2283734381
1.2317579145
1.2349079263
1.2377807774
1.2403550416
1.2426234643
1.2445965280
1.2462926572
1.2477348374
1.2489496770
1.2499661726
1.2508132835
1.2515172459
1.2521014380
1.2525861256
1.2529884120
1.2533223807
1.2535994325
1.2538286688
1.2540172337
1.2541706401
1.2542931061
1.2543877917
1.2544569828
1.2545022818
1.2545247096
1.2560878011
1.1251475802
1.1256917852
1.1256813320
1.1256650132
1.1256521085
1.1256559444
1.1256933184
1.1257837291
1.1259485923
1.1262104822
1.1265918730
1.1271137369
1.1277971285
1.1286617949
1.1297269730
1.1310140108
1.1325521881
1.1343939929
1.1366485530
1.1395557100
1.1436794940
1.1508732770
1.1609779256
1.1600671131
1.1816340090
1.1937942314
1.2013304953
1.2071587049
1.2121650096
1.2167381652
1.2210323280
1.2250941844
1.2289200621
1.2324816490
1.2357426937
1.2386740787
1.2412651311
1.2435205974
1.2454552779
1.2470957821
1.2484712840
1.2496126388
1.2505521168
1.2513217664
1.2519502544
1.2524628891
1.2528812699
1.2532233697
1.2535037735
1.2537340344
1.2539231700
1.2540780702
1.2542038444
1.2543042550
1.2543820063
1.2544389401
1.2544762996
1.2544948607
1.2561177122
1.1249349902
1.1254811686
1.1254718987
1.1254583693
1.1254507245
1.1254635906
1.1255154985
1.1256282097
1.1258259951
1.1261350524
1.1265822216
1.1271941841
1.1279995459
1.1290276713
1.1303105193
1.1318859882
1.1338037485
1.1361378910
1.1390087960
1.1426200957
1.1473278375
1.1538174712
1.1617451656
1.1669370314
1.1803569497
1.1906912207
1.1986819127
1.2053081134
1.2110558682
1.2162160666
1.2209449847
1.2253177986
1.2293616320
1.2330713587
1.2364247418
1.2394050265
1.2420064511
1.2442457944
1.2461467580
1.2477393372
1.2490577024
1.2501359731
1.2510099792
1.2517141110
1.2522790359
1.2527316792
1.2530947200
1.2533868149
1.2536229200
1.2538146721
1.2539709735
1.2540984559
1.2542018476
1.2542844890
1.2543486670
1.2543958218
1.2544268738
1.2544423814
1.2561141192
1.1248765059
1.1254181198
1.1254104554
1.1254004723
1.1253990033
1.1254217108
1.1254885260
1.1256230227
1.1258517661
1.1262038666
1.1267095551
1.1274000159
1.1283094174
1.1294738432
1.1309332463
1.1327343260
1.1349347057
1.1376114151
1.1408726660
1.1448720416
1.1498233688
1.1559943915
1.1631789966
1.1701039396
1.1802560109
1.1894092318
1.1973353747
1.2042628600
1.2103997735
1.2159179561
1.2209349153
1.2255235019
1.2297222953
1.2335395398
1.2369610716
1.2399688646
1.2425741270
1.2447984039
1.2466700385
1.2482227305
1.2494939364
1.2505217777
1.2513436843
1.2519954594
1.2525101015
1.2529156622
1.2532354686
1.2534886223
1.2536903299
1.2538522660
1.2539832200
1.2540896026
1.2541758255
1.2542448819
1.2542987164
1.2543384419
1.2543647161
1.2543779219
1.2560871589
1.1249658190
1.1254964507
1.1254906968
1.1254847624
1.1254899540
1.1255226427
1.1256037186
1.1257579898
1.1260135856
1.1264015758
1.1269544943
1.1277064510
1.1286951279
1.1299606067
1.1315470861
1.1335050308
1.1358937083
1.1387864650
1.1422762790
1.1464788359
1.1515288903
1.1575453095
1.1644231036
1.1717351977
1.1805138546
1.1889971329
1.1967791527
1.2038042392
1.2101267774
1.2158362998
1.2210149029
1.2257264894
1.2300138868
1.2338940802
1.2373481372
1.2403661514
1.2429667152
1.2451749923
1.2470221363
1.2485443341
1.2497810881
1.2507725511
1.2515576337
1.2521734209
1.2526533733
1.2530261069
1.2533156258
1.2535414597
1.2537190307
1.2538600514
1.2539732351
1.2540648367
1.2541390430
1.2541985997
1.2542452080
1.2542797477
1.2543026904
1.2543142943
1.2560492160
1.1251949396
1.1257082321
1.1257046006
1.1257030181
1.1257150164
1.1257573024
1.1258512146
1.1260221367
1.1262989255
1.1267135700
1.1272997036
1.1280927375
1.1291319332
1.1304590707
1.1321199144
1.1341658508
1.1366554321
1.1396579379
1.1432560256
1.1475444895
1.1526220113
1.1585574950
1.1652909617
1.1726392511
1.1808875664
1.1890632341
1.1967478792
1.2037884485
1.2101717915
1.2159479090
1.2211807155
1.2259292756
1.2302398634
1.2341335542
1.2375858973
1.2405948350
1.2431815643
1.2453728271
1.2472008895
1.2487028200
1.2499188176
1.2508897715