<VTKFile type="UnstructuredGrid" version="0.1">
	<UnstructuredGrid>
		<Piece NumberOfPoints="13548" NumberOfCells="3387">
			<CellData>
				<DataArray type="Int32" Name="ghost" NumberOfComponents="1" Format="ascii">
1
1
1
1
1
1
1
1
1
1
1
1
1
1
1
1
1
1
1
1
1
1
1
1
1
1
1
1
1
1
1
1
1
1
1
1
1
1
1
1
1
1
1
1
1
1
1
1
1
1
1
1
1
1
1
1
1
1
0
0
0
0
0
0
0
0
0
0
0
0
0
0
0
0
0
0
0
0
1
1
0
0
0
0
0
0
0
0
0
0
0
0
0
0
0
0
0
0
0
0
0
0
0
0
0
0
0
0
0
0
0
0
0
1
1
0
0
0
0
0
0
0
0
0
0
0
0
0
0
0
0
0
0
0
0
1
1
0
0
0
0
0
0
0
0
0
0
0
0
0
0
0
0
0
0
0
0
0
0
0
0
0
0
0
0
0
0
0
0
0
1
1
0
0
0
0
0
0
0
0
0
0
0
0
0
0
0
0
0
0
0
0
1
1
0
0
0
0
0
0
0
0
0
0
0
0
0
0
0
0
0
0
0
0
0
0
0
0
0
0
0
0
0
0
0
0
0
1
1
0
0
0
0
0
0
0
0
0
0
0
0
0
0
0
0
0
0
0
0
1
1
0
0
0
0
0
0
0
0
0
0
0
0
0
0
0
0
0
0
0
0
0
0
0
0
0
0
0
0
0
0
0
0
0
1
1
0
0
0
0
0
0
0
0
0
0
0
0
0
0
0
0
0
0
0
0
1
1
0
0
0
0
0
0
0
0
0
0
0
0
0
0
0
0
0
0
0
0
0
0
0
0
0
0
0
0
0
0
0
0
0
1
1
0
0
0
0
0
0
0
0
0
0
0
0
0
0
0
0
0
0
0
0
1
1
0
0
0
0
0
0
0
0
0
0
0
0
0
0
0
0
0
0
0
0
0
0
0
0
0
0
0
0
0
0
0
0
0
1
1
0
0
0
0
0
0
0
0
0
0
0
0
0
0
0
0
0
0
0
0
1
1
0
0
0
0
0
0
0
0
0
0
0
0
0
0
0
0
0
0
0
0
0
0
0
0
0
0
0
0
0
0
0
0
0
1
1
0
0
0
0
0
0
0
0
0
0
0
0
0
0
0
0
0
0
0
0
1
1
0
0
0
0
0
0
0
0
0
0
0
0
0
0
0
0
0
0
0
0
0
0
0
0
0
0
0
0
0
0
0
0
0
1
1
0
0
0
0
0
0
0
0
0
0
0
0
0
0
0
0
0
0
0
0
1
1
0
0
0
0
0
0
0
0
0
0
0
0
0
0
0
0
0
0
0
0
0
0
0
0
0
0
0
0
0
0
0
0
0
1
1
0
0
0
0
0
0
0
0
0
0
0
0
0
0
0
0
0
0
0
0
1
1
0
0
0
0
0
0
0
0
0
0
0
0
0
0
0
0
0
0
0
0
0
0
0
0
0
0
0
0
0
0
0
0
0
1
1
0
0
0
0
0
0
0
0
0
0
0
0
0
0
0
0
0
0
0
0
1
1
0
0
0
0
0
0
0
0
0
0
0
0
0
0
0
0
0
0
0
0
0
0
0
0
0
0
0
0
0
0
0
0
0
1
1
0
0
0
0
0
0
0
0
0
0
0
0
0
0
0
0
0
0
0
0
1
1
0
0
0
0
0
0
0
0
0
0
0
0
0
0
0
0
0
0
0
0
0
0
0
0
0
0
0
0
0
0
0
0
0
1
1
0
0
0
0
0
0
0
0
0
0
0
0
0
0
0
0
0
0
0
0
1
1
0
0
0
0
0
0
0
0
0
0
0
0
0
0
0
0
0
0
0
0
0
0
0
0
0
0
0
0
0
0
0
0
0
1
1
0
0
0
0
0
0
0
0
0
0
0
0
0
0
0
0
0
0
0
0
1
1
0
0
0
0
0
0
0
0
0
0
0
0
0
0
0
0
0
0
0
0
0
0
0
0
0
0
0
0
0
0
0
0
0
1
1
0
0
0
0
0
0
0
0
0
0
0
0
0
0
0
0
0
0
0
0
1
1
0
0
0
0
0
0
0
0
0
0
0
0
0
0
0
0
0
0
0
0
0
0
0
0
0
0
0
0
0
0
0
0
0
1
1
0
0
0
0
0
0
0
0
0
0
0
0
0
0
0
0
0
0
0
0
1
1
0
0
0
0
0
0
0
0
0
0
0
0
0
0
0
0
0
0
0
0
0
0
0
0
0
0
0
0
0
0
0
0
0
1
1
0
0
0
0
0
0
0
0
0
0
0
0
0
0
0
0
0
0
0
0
1
1
0
0
0
0
0
0
0
0
0
0
0
0
0
0
0
0
0
0
0
0
0
0
0
0
0
0
0
0
0
0
0
0
0
1
1
0
0
0
0
0
0
0
0
0
0
0
0
0
0
0
0
0
0
0
0
1
1
0
0
0
0
0
0
0
0
0
0
0
0
0
0
0
0
0
0
0
0
0
0
0
0
0
0
0
0
0
0
0
0
0
1
1
0
0
0
0
0
0
0
0
0
0
0
0
0
0
0
0
0
0
0
0
1
1
0
0
0
0
0
0
0
0
0
0
0
0
0
0
0
0
0
0
0
0
0
0
0
0
0
0
0
0
0
0
0
0
0
1
1
0
0
0
0
0
0
0
0
0
0
0
0
0
0
0
0
0
0
0
0
1
1
0
0
0
0
0
0
0
0
0
0
0
0
0
0
0
0
0
0
0
0
0
0
0
0
0
0
0
0
0
0
0
0
0
1
1
0
0
0
0
0
0
0
0
0
0
0
0
0
0
0
0
0
0
0
0
1
1
0
0
0
0
0
0
0
0
0
0
0
0
0
0
0
0
0
0
0
0
0
0
0
0
0
0
0
0
0
0
0
0
0
1
1
0
0
0
0
0
0
0
0
0
0
0
0
0
0
0
0
0
0
0
0
1
1
0
0
0
0
0
0
0
0
0
0
0
0
0
0
0
0
0
0
0
0
0
0
0
0
0
0
0
0
0
0
0
0
0
1
1
0
0
0
0
0
0
0
0
0
0
0
0
0
0
0
0
0
0
0
0
1
1
0
0
0
0
0
0
0
0
0
0
0
0
0
0
0
0
0
0
0
0
0
0
0
0
0
0
0
0
0
0
0
0
0
1
1
0
0
0
0
0
0
0
0
0
0
0
0
0
0
0
0
0
0
0
0
1
1
0
0
0
0
0
0
0
0
0
0
0
0
0
0
0
0
0
0
0
0
0
0
0
0
0
0
0
0
0
0
0
0
0
1
1
0
0
0
0
0
0
0
0
0
0
0
0
0
0
0
0
0
0
0
0
0
1
1
0
0
0
0
0
0
0
0
0
0
0
0
0
0
0
0
0
0
0
0
0
0
0
0
0
0
0
0
0
0
0
0
0
0
1
1
0
0
0
0
0
0
0
0
0
0
0
0
0
0
0
0
0
0
0
0
0
0
0
0
0
0
0
0
0
0
0
0
0
0
0
0
0
0
0
0
0
0
0
0
0
0
0
0
0
0
0
0
0
0
0
0
0
1
1
0
0
0
0
0
0
0
0
0
0
0
0
0
0
0
0
0
0
0
0
0
0
0
0
0
0
0
0
0
0
0
0
0
0
0
0
0
0
0
0
0
0
0
0
0
0
0
0
0
0
0
0
0
0
0
0
0
1
1
0
0
0
0
0
0
0
0
0
0
0
0
0
0
0
0
0
0
0
0
0
0
0
0
0
0
0
0
0
0
0
0
0
0
0
0
0
0
0
0
0
0
0
0
0
0
0
0
0
0
0
0
0
0
0
0
0
1
1
0
0
0
0
0
0
0
0
0
0
0
0
0
0
0
0
0
0
0
0
0
0
0
0
0
0
0
0
0
0
0
0
0
0
0
0
0
0
0
0
0
0
0
0
0
0
0
0
0
0
0
0
0
0
0
0
0
1
1
0
0
0
0
0
0
0
0
0
0
0
0
0
0
0
0
0
0
0
0
0
0
0
0
0
0
0
0
0
0
0
0
0
0
0
0
0
0
0
0
0
0
0
0
0
0
0
0
0
0
0
0
0
0
0
0
0
1
1
0
0
0
0
0
0
0
0
0
0
0
0
0
0
0
0
0
0
0
0
0
0
0
0
0
0
0
0
0
0
0
0
0
0
0
0
0
0
0
0
0
0
0
0
0
0
0
0
0
0
0
0
0
0
0
0
0
1
1
0
0
0
0
0
0
0
0
0
0
0
0
0
0
0
0
0
0
0
0
0
0
0
0
0
0
0
0
0
0
0
0
0
0
0
0
0
0
0
0
0
0
0
0
0
0
0
0
0
0
0
0
0
0
0
0
0
1
1
0
0
0
0
0
0
0
0
0
0
0
0
0
0
0
0
0
0
0
0
0
0
0
0
0
0
0
0
0
0
0
0
0
0
0
0
0
0
0
0
0
0
0
0
0
0
0
0
0
0
0
0
0
0
0
0
0
1
1
0
0
0
0
0
0
0
0
0
0
0
0
0
0
0
0
0
0
0
0
0
0
0
0
0
0
0
0
0
0
0
0
0
0
0
0
0
0
0
0
0
0
0
0
0
0
0
0
0
0
0
0
0
0
0
0
0
1
1
0
0
0
0
0
0
0
0
0
0
0
0
0
0
0
0
0
0
0
0
0
0
0
0
0
0
0
0
0
0
0
0
0
0
0
0
0
0
0
0
0
0
0
0
0
0
0
0
0
0
0
0
0
0
0
0
0
1
1
0
0
0
0
0
0
0
0
0
0
0
0
0
0
0
0
0
0
0
0
0
1
1
0
0
0
0
0
0
0
0
0
0
0
0
0
0
0
0
0
0
0
0
0
0
0
0
0
0
0
0
0
0
0
0
0
0
1
1
0
0
0
0
0
0
0
0
0
0
0
0
0
0
0
0
0
0
0
0
1
1
0
0
0
0
0
0
0
0
0
0
0
0
0
0
0
0
0
0
0
0
0
0
0
0
0
0
0
0
0
0
0
0
0
1
1
0
0
0
0
0
0
0
0
0
0
0
0
0
0
0
0
0
0
0
0
1
1
0
0
0
0
0
0
0
0
0
0
0
0
0
0
0
0
0
0
0
0
0
0
0
0
0
0
0
0
0
0
0
0
0
1
1
0
0
0
0
0
0
0
0
0
0
0
0
0
0
0
0
0
0
0
0
1
1
0
0
0
0
0
0
0
0
0
0
0
0
0
0
0
0
0
0
0
0
0
0
0
0
0
0
0
0
0
0
0
0
0
1
1
0
0
0
0
0
0
0
0
0
0
0
0
0
0
0
0
0
0
0
0
1
1
0
0
0
0
0
0
0
0
0
0
0
0
0
0
0
0
0
0
0
0
0
0
0
0
0
0
0
0
0
0
0
0
0
1
1
0
0
0
0
0
0
0
0
0
0
0
0
0
0
0
0
0
0
0
0
1
1
0
0
0
0
0
0
0
0
0
0
0
0
0
0
0
0
0
0
0
0
0
0
0
0
0
0
0
0
0
0
0
0
0
1
1
0
0
0
0
0
0
0
0
0
0
0
0
0
0
0
0
0
0
0
0
1
1
0
0
0
0
0
0
0
0
0
0
0
0
0
0
0
0
0
0
0
0
0
0
0
0
0
0
0
0
0
0
0
0
0
1
1
0
0
0
0
0
0
0
0
0
0
0
0
0
0
0
0
0
0
0
0
1
1
0
0
0
0
0
0
0
0
0
0
0
0
0
0
0
0
0
0
0
0
0
0
0
0
0
0
0
0
0
0
0
0
0
1
1
0
0
0
0
0
0
0
0
0
0
0
0
0
0
0
0
0
0
0
0
1
1
0
0
0
0
0
0
0
0
0
0
0
0
0
0
0
0
0
0
0
0
0
0
0
0
0
0
0
0
0
0
0
0
0
1
1
0
0
0
0
0
0
0
0
0
0
0
0
0
0
0
0
0
0
0
0
1
1
0
0
0
0
0
0
0
0
0
0
0
0
0
0
0
0
0
0
0
0
0
0
0
0
0
0
0
0
0
0
0
0
0
1
1
0
0
0
0
0
0
0
0
0
0
0
0
0
0
0
0
0
0
0
0
1
1
0
0
0
0
0
0
0
0
0
0
0
0
0
0
0
0
0
0
0
0
0
0
0
0
0
0
0
0
0
0
0
0
0
1
1
0
0
0
0
0
0
0
0
0
0
0
0
0
0
0
0
0
0
0
0
1
1
0
0
0
0
0
0
0
0
0
0
0
0
0
0
0
0
0
0
0
0
0
0
0
0
0
0
0
0
0
0
0
0
0
1
1
0
0
0
0
0
0
0
0
0
0
0
0
0
0
0
0
0
0
0
0
1
1
0
0
0
0
0
0
0
0
0
0
0
0
0
0
0
0
0
0
0
0
0
0
0
0
0
0
0
0
0
0
0
0
0
1
1
0
0
0
0
0
0
0
0
0
0
0
0
0
0
0
0
0
0
0
0
1
1
0
0
0
0
0
0
0
0
0
0
0
0
0
0
0
0
0
0
0
0
0
0
0
0
0
0
0
0
0
0
0
0
0
1
1
0
0
0
0
0
0
0
0
0
0
0
0
0
0
0
0
0
0
0
0
1
1
0
0
0
0
0
0
0
0
0
0
0
0
0
0
0
0
0
0
0
0
0
0
0
0
0
0
0
0
0
0
0
0
0
1
1
0
0
0
0
0
0
0
0
0
0
0
0
0
0
0
0
0
0
0
0
1
1
0
0
0
0
0
0
0
0
0
0
0
0
0
0
0
0
0
0
0
0
0
0
0
0
0
0
0
0
0
0
0
0
0
1
1
0
0
0
0
0
0
0
0
0
0
0
0
0
0
0
0
0
0
0
0
1
1
0
0
0
0
0
0
0
0
0
0
0
0
0
0
0
0
0
0
0
0
0
0
0
0
0
0
0
0
0
0
0
0
0
1
1
0
0
0
0
0
0
0
0
0
0
0
0
0
0
0
0
0
0
0
0
1
1
0
0
0
0
0
0
0
0
0
0
0
0
0
0
0
0
0
0
0
0
0
0
0
0
0
0
0
0
0
0
0
0
0
1
1
0
0
0
0
0
0
0
0
0
0
0
0
0
0
0
0
0
0
0
0
1
1
0
0
0
0
0
0
0
0
0
0
0
0
0
0
0
0
0
0
0
0
0
0
0
0
0
0
0
0
0
0
0
0
0
1
1
0
0
0
0
0
0
0
0
0
0
0
0
0
0
0
0
0
0
0
0
1
1
0
0
0
0
0
0
0
0
0
0
0
0
0
0
0
0
0
0
0
0
0
0
0
0
0
0
0
0
0
0
0
0
0
1
1
0
0
0
0
0
0
0
0
0
0
0
0
0
0
0
0
0
0
0
0
1
1
0
0
0
0
0
0
0
0
0
0
0
0
0
0
0
0
0
0
0
0
0
0
0
0
0
0
0
0
0
0
0
0
0
1
1
0
0
0
0
0
0
0
0
0
0
0
0
0
0
0
0
0
0
0
0
1
1
0
0
0
0
0
0
0
0
0
0
0
0
0
0
0
0
0
0
0
0
0
0
0
0
0
0
0
0
0
0
0
0
0
1
1
1
1
1
1
1
1
1
1
1
1
1
1
1
1
1
1
1
1
1
1
1
1
1
1
1
1
1
1
1
1
1
1
1
1
1
1
1
1
1
1
1
1
1
1
1
1
1
1
1
1
1
1
1
1
1
1
				</DataArray>
				<DataArray type="Float64" Name="h" NumberOfComponents="1" Format="ascii">
1.1715507673
1.1731682600
1.1730376480
1.1727797328
1.1724007196
1.1719097946
1.1713189705
1.1706427662
1.1698978858
1.1691028576
1.1682775001
1.1674423829
1.1666183254
1.1658257972
1.1650843381
1.1644121104
1.1638254553
1.1633384695
1.1629627518
1.1627072095
1.1625778397
1.1625778397
1.2439843950
1.2423367171
1.2421752466
1.2418536318
1.2413709498
1.2407260256
1.2399175565
1.2389440464
1.2378041591
1.2364970317
1.2350224206
1.2333810942
1.2315753014
1.2296090457
1.2274883794
1.2252218794
1.2228208826
1.2202995493
1.2176752397
1.2149686202
1.2122034980
1.2094070794
1.2066099057
1.2038454287
1.2011499466
1.1985621262
1.1961220999
1.1938708076
1.1918488066
1.1900947207
1.1886439431
1.1875270678
1.1867683383
1.1863845517
1.1863845517
1.1731682600
1.1747968087
1.1746669579
1.1744104170
1.1740331686
1.1735440945
1.1729548556
1.1722796157
1.1715347552
1.1707385483
1.1699106625
1.1690716375
1.1682423956
1.1674436378
1.1666952476
1.1660158177
1.1654221651
1.1649288699
1.1645479808
1.1642887763
1.1641575192
1.1625778397
1.2423367171
1.2406485316
1.2404931169
1.2401835579
1.2397190764
1.2390986848
1.2383212836
1.2373855765
1.2362903832
1.2350349186
1.2336189204
1.2320430152
1.2303091684
1.2284209677
1.2263839181
1.2242059284
1.2218975770
1.2194721944
1.2169462537
1.2143394986
1.2116747838
1.2089783281
1.2062796477
1.2036111316
1.2010079747
1.1985076951
1.1961492567
1.1939724373
1.1920166665
1.1903195276
1.1889154980
1.1878343986
1.1870998842
1.1867283616
1.1863845517
1.1733590106
1.1749738417
1.1748423147
1.1745824680
1.1742003684
1.1737050217
1.1731082493
1.1724244069
1.1716700930
1.1708638197
1.1700255050
1.1691759441
1.1683363142
1.1675275656
1.1667698194
1.1660818923
1.1654808072
1.1649813263
1.1645956531
1.1643331881
1.1642002782
1.1626439952
1.2421723621
1.2405036178
1.2403478387
1.2400375908
1.2395721867
1.2389507690
1.2381724022
1.2372359804
1.2361405301
1.2348854789
1.2334707715
1.2318972219
1.2301669512
1.2282836575
1.2262529013
1.2240825824
1.2217832029
1.2193679495
1.2168530890
1.2142581074
1.2116055657
1.2089213693
1.2062347219
1.2035777205
1.2009853155
1.1984948287
1.1961450877
1.1939757913
1.1920263426
1.1903343417
1.1889343123
1.1878561363
1.1871235302
1.1867529509
1.1864085404
1.1737397611
1.1753273840
1.1751925364
1.1749261439
1.1745344456
1.1740266994
1.1734150508
1.1727142407
1.1719413021
1.1711152177
1.1702563984
1.1693861398
1.1685261173
1.1676977663
1.1669216716
1.1662170855
1.1656014313
1.1650898270
1.1646947778
1.1644259230
1.1642897741
1.1627791623
1.2418321006
1.2402013054
1.2400450778
1.2397339980
1.2392675346
1.2386450541
1.2378659044
1.2369293099
1.2358346583
1.2345817502
1.2331708943
1.2316032362
1.2298811706
1.2280085893
1.2259911450
1.2238367119
1.2215556398
1.2191608379
1.2166681772
1.2140966511
1.2114682596
1.2088083113
1.2061454193
1.2035111351
1.2009399345
1.1984687574
1.1961361633
1.1939816963
1.1920447076
1.1903628309
1.1889706825
1.1878982650
1.1871694176
1.1868006960
1.1864548883
1.1742984742
1.1758452905
1.1757054777
1.1754293037
1.1750232770
1.1744970462
1.1738632552
1.1731372312
1.1723366614
1.1714812314
1.1705920817
1.1696912446
1.1688011249
1.1679438669
1.1671407314
1.1664116057
1.1657744972
1.1652450430
1.1648361906
1.1645579291
1.1644170120
1.1629726398
1.2413192669
1.2397437272
1.2395870303
1.2392750995
1.2388076206
1.2381842723
1.2374047960
1.2364688748
1.2353763964
1.2341276762
1.2327235242
1.2311655397
1.2294564887
1.2276005202
1.2256034006
1.2234729498
1.2212192851
1.2188549057
1.2163951060
1.2138581666
1.2112652792
1.2086408954
1.2060127842
1.2034117189
1.2008714919
1.1984284956
1.1961209065
1.1939880496
1.1920692063
1.1904020644
1.1890213795
1.1879573341
1.1872339491
1.1868679267
1.1865195563
1.1750180293
1.1765103386
1.1763639309
1.1760747746
1.1756497539
1.1750990585
1.1744360156
1.1736767473
1.1728398179
1.1719458444
1.1710169249
1.1700760509
1.1691465715
1.1682515457
1.1674131042
1.1666519523
1.1659868508
1.1654341083
1.1650072467
1.1647167113
1.1645695726
1.1632096415
1.2406387065
1.2391339960
1.2389769008
1.2386642780
1.2381960873
1.2375723989
1.2367934447
1.2358594766
1.2347709990
1.2335289578
1.2321347722
1.2305905876
1.2288996089
1.2270662790
1.2250964775
1.2229979266
1.2207804244
1.2184559302
1.2160389934
1.2135469825
1.2110000612
1.2084215969
1.2058382943
1.2032799499
1.2007794926
1.1983726305
1.1960970636
1.1939918500
1.1920961933
1.1904478614
1.1890817974
1.1880284217
1.1873119938
1.1869494080
1.1865967864
1.1758770024
1.1773010935
1.1771465073
1.1768412638
1.1763927363
1.1758118135
1.1751126974
1.1743125168
1.1734309337
1.1724897172
1.1715121370
1.1705223479
1.1695448367
1.1686037596
1.1677222904
1.1669221156
1.1662229038
1.1656417773
1.1651929585
1.1648874539
1.1647327263
1.1634725669
1.2397968890
1.2383763745
1.2382190631
1.2379061240
1.2374378415
1.2368147454
1.2360376387
1.2351074298
1.2340253282
1.2327929931
1.2314125247
1.2298866688
1.2282191010
1.2264145620
1.2244790176
1.2224200323
1.2202469906
1.2179711867
1.2156062717
1.2131685291
1.2106769104
1.2081535086
1.2056237892
1.2031164125
1.2006633019
1.1982993769
1.1960617962
1.1939893221
1.1921210861
1.1904949677
1.1891461483
1.1881053429
1.1873971043
1.1870385617
1.1866793595
1.1768503046
1.1781926284
1.1780283715
1.1777041196
1.1772278488
1.1766113055
1.1758697556
1.1750215415
1.1740876329
1.1730911565
1.1720567479
1.1710099051
1.1699764197
1.1689817019
1.1680501171
1.1672044777
1.1664655006
1.1658512579
1.1653767993
1.1650538017
1.1648902015
1.1637419532
1.2388026069
1.2374770621
1.2373198309
1.2370071740
1.2365397457
1.2359185928
1.2351451516
1.2342210505
1.2331482600
1.2319291980
1.2305666766
1.2290640544
1.2274254685
1.2256559267
1.2237614263
1.2217492953
1.2196284052
1.2174092667
1.2151044981
1.2127291557
1.2103008312
1.2078402029
1.2053713657
1.2029217315
1.2005221179
1.1982065901
1.1960117302
1.1939759994
1.1921384756
1.1905371908
1.1892076167
1.1881808190
1.1874816949
1.1871276488
1.1867588217
1.1779108960
1.1791583242
1.1789830522
1.1786371615
1.1781293386
1.1774723355
1.1766826580
1.1757800506
1.1747869806
1.1737281127
1.1726296143
1.1715184766
1.1704219323
1.1693667733
1.1683786806
1.1674817188
1.1666977857
1.1660460395
1.1655424946
1.1651996230
1.1650259337
1.1639984109
1.2376662139
1.2364435313
1.2362867874
1.2359752300
1.2355099253
1.2348924848
1.2341250234
1.2332099257
1.2321499456
1.2309482636
1.2296083895
1.2281342618
1.2265304275
1.2248020930
1.2229552046
1.2209967587
1.2189350096
1.2167795736
1.2145419252
1.2122357809
1.2098772720
1.2074855663
1.2050833068
1.2026965924
1.2003550789
1.1980919527
1.1959432156
1.1939470458
1.1921425029
1.1905678196
1.1892588137
1.1882469560
1.1875575371
1.1872082737
1.1868260399
1.1790309046
1.1801710559
1.1799836314
1.1796138771
1.1790712815
1.1783697282
1.1775271111
1.1765647352
1.1755067207
1.1743794148
1.1732106461
1.1720290114
1.1708632849
1.1697417362
1.1686914609
1.1677378871
1.1669042232
1.1662108622
1.1656749444
1.1653098961
1.1651249293
1.1642236504
1.2363997830
1.2352847925
1.2351290349
1.2348195796
1.2343579494
1.2337463644
1.2329876481
1.2320849523
1.2310418000
1.2298620951
1.2285499842
1.2271099054
1.2255467200
1.2238657292
1.2220727179
1.2201742405
1.2181778273
1.2160921033
1.2139273071
1.2116957418
1.2094120184
1.2070937465
1.2047620896
1.2024418101
1.2001613945
1.1979531638
1.1958525694
1.1938975481
1.1921271923
1.1905799802
1.1892921522
1.1882956682
1.1876162038
1.1872718256
1.1868716965
1.1801825721
1.1812041651
1.1810037120
1.1806083789
1.1800285236
1.1792792537
1.1783799601
1.1773536216
1.1762261204
1.1750255838
1.1737815840
1.1725243913
1.1712843812
1.1700913611
1.1689739144
1.1679589316
1.1670710660
1.1663321194
1.1657605643
1.1653709980
1.1651735270
1.1644008900
1.2350176918
1.2340121154
1.2338578893
1.2335516446
1.2330954201
1.2324920934
1.2317452191
1.2308587044
1.2298367919
1.2286840251
1.2274050788
1.2260047639
1.2244881193
1.2228604015
1.2211271010
1.2192942068
1.2173684221
1.2153572939
1.2132697631
1.2111166750
1.2089110983
1.2066691083
1.2044103865
1.2021583803
1.1999404486
1.1977880975
1.1957362827
1.1938226229
1.1920866779
1.1905670417
1.1893003661
1.1883190944
1.1876494433
1.1873098659
1.1868867496
1.1813398454
1.1822330496
1.1820189966
1.1815969622
1.1809782106
1.1801791233
1.1792206456
1.1781274884
1.1769273471
1.1756501692
1.1743272972
1.1729906897
1.1716723347
1.1704035971
1.1692145914
1.1681337565
1.1671873367
1.1663987567
1.1657881000
1.1653714489
1.1651600968
1.1645156759
1.2335360054
1.2326385460
1.2324863767
1.2321844447
1.2317354000
1.2311428510
1.2304111077
1.2295448017
1.2285488100
1.2274281862
1.2261879767
1.2248331923
1.2233688700
1.2218000527
1.2201317816
1.2183693522
1.2165185351
1.2145857341
1.2125785561
1.2105063683
1.2083807411
1.2062162478
1.2040311597
1.2018476595
1.1996920296
1.1975948231
1.1955912308
1.1937185474
1.1920161276
1.1905231667
1.1892768421
1.1883101530
1.1876498545
1.1873148269
1.1868631775
1.1824791821
1.1832359390
1.1830080486
1.1825588398
1.1819004845
1.1810506402
1.1800318063
1.1788704200
1.1775959757
1.1762402149
1.1748362119
1.1734175672
1.1720178335
1.1706699016
1.1694054215
1.1682544478
1.1672449752
1.1664023217
1.1657485674
1.1653017476
1.1650748098
1.1645557173
1.2319727527
1.2311793070
1.2310295933
1.2307328962
1.2302926479
1.2297133123
1.2289999954
1.2281580068
1.2271927336
1.2261095622
1.2249137044
1.2236101452
1.2222037056
1.2206990154
1.2191005018
1.2174126214
1.2156401278
1.2137882266
1.2118631731
1.2098729055
1.2078274742
1.2057401750
1.2036278426
1.2015111375
1.1994163602
1.1973732384
1.1954160189
1.1935822836
1.1919116567
1.1904437658
1.1892164055
1.1882631952
1.1876114729
1.1872806032
1.1867946305
1.1835801375
1.1841944164
1.1839527946
1.1834766073
1.1827788994
1.1818785560
1.1807995701
1.1795700333
1.1782211542
1.1767863714
1.1753003812
1.1737983065
1.1723151466
1.1708852184
1.1695416540
1.1683161558
1.1672386321
1.1663366312
1.1656347646
1.1651537268
1.1649088819
1.1645101721
1.2303484513
1.2296524542
1.2295052947
1.2292143058
1.2287840186
1.2282199719
1.2275281420
1.2267144511
1.2257846290
1.2247441650
1.2235981592
1.2223513070
1.2210079557
1.2195721169
1.2180473930
1.2164372969
1.2147454691
1.2129758644
1.2111334562
1.2092247297
1.2072583290
1.2052458156
1.2032041369
1.2011525947
1.1991158834
1.1971236517
1.1952099416
1.1934124309
1.1917710384
1.1903259658
1.1891156647
1.1881744450
1.1875302855
1.1872030672
1.1866770033
1.1846261586
1.1850941197
1.1848392097
1.1843368972
1.1836010317
1.1826516300
1.1815140615
1.1802179353
1.1787960212
1.1772832852
1.1757158582
1.1741301841
1.1725625015
1.1710483600
1.1696222303
1.1683174220
1.1671658955
1.1661978277
1.1654410904
1.1649201057
1.1646539241
1.1643690137
1.2286857878
1.2280786629
1.2279335743
1.2276479189
1.2272279105
1.2266805409
1.2260127765
1.2252310620
1.2243412389
1.2233485698
1.2222577170
1.2210727534
1.2197973058
1.2184344493
1.2169868490
1.2154569358
1.2138470887
1.2121601624
1.2103994073
1.2085701296
1.2066804344
1.2047409777
1.2027664734
1.2007759845
1.1987935048
1.1968483094
1.1949743499
1.1932095130
1.1915941877
1.1901691662
1.1889736344
1.1880426470
1.1874048671
1.1870807173
1.1865091246
1.1856045842
1.1859246601
1.1856572223
1.1851302588
1.1843583263
1.1833624375
1.1821691717
1.1808094625
1.1793174255
1.1777293156
1.1760824319
1.1744142453
1.1727619155
1.1711619009
1.1696497229
1.1682601191
1.1670271459
1.1659840252
1.1651628433
1.1645933507
1.1643004261
1.1641214849
1.2270101922
1.2264818717
1.2263372917
1.2260551072
1.2256442845
1.2251138860
1.2244720370
1.2237255472
1.2228799988
1.2219400043
1.2209093513
1.2197911868
1.2185879402
1.2173016258
1.2159338318
1.2144855436
1.2129575699
1.2113521108
1.2096716878
1.2079201889
1.2061038999
1.2042330574
1.2023215631
1.2003874677
1.1984544040
1.1965515284
1.1947128358
1.1929765842
1.1913836633
1.1899755519
1.1887922337
1.1878695452
1.1872368607
1.1869151537
1.1862932543
1.1865065380
1.1866794251
1.1864005026
1.1858509199
1.1850458220
1.1840070527
1.1827621984
1.1813432827
1.1797855038
1.1781261091
1.1764032262
1.1746549604
1.1729189427
1.1712320391
1.1696303117
1.1681494950
1.1668255531
1.1656950611
1.1647954632
1.1641641704
1.1638355141
1.1637538146
1.2253507065
1.2248902021
1.2247425508
1.2244594245
1.2240544658
1.2235397546
1.2229247254
1.2222161994
1.2214189459
1.2205363162
1.2195707902
1.2185239026
1.2173967006
1.2161894424
1.2149026931
1.2135365140
1.2120908808
1.2105657121
1.2089629827
1.2072855783
1.2055389128
1.2037319490
1.2018781615
1.1999949827
1.1981059227
1.1962400682
1.1944316814
1.1927194915
1.1911449822
1.1897504099
1.1885765944
1.1876601786
1.1870312560
1.1867113473
1.1860353194
1.1873267423
1.1873553053
1.1870661823
1.1864964911
1.1856618355
1.1845847103
1.1832934892
1.1818210297
1.1802033229
1.1784782760
1.1766844473
1.1748600921
1.1730427133
1.1712688560
1.1695742846
1.1679948712
1.1665678158
1.1653329533
1.1643342076
1.1636198547
1.1632397505
1.1632459693
1.2237408766
1.2233368477
1.2231786579
1.2228858231
1.2224800002
1.2219775764
1.2213892237
1.2207210397
1.2199760580
1.2191553823
1.2182593266
1.2172876071
1.2162395562
1.2151142433
1.2139100208
1.2126261335
1.2112613084
1.2098147820
1.2082866227
1.2066792170
1.2049971209
1.2032487769
1.2014468823
1.1996087416
1.1977577911
1.1959233346
1.1941400299
1.1924471554
1.1908869280
1.1895024310
1.1883353550
1.1874231623
1.1867966616
1.1864779074
1.1857451339
1.1880628090
1.1879519409
1.1876540938
1.1870671931
1.1862071720
1.1850969985
1.1837656176
1.1822464709
1.1805760573
1.1787926085
1.1769346917
1.1750401616
1.1731456534
1.1712863938
1.1694965649
1.1678106387
1.1662654690
1.1649030529
1.1637742460
1.1629420371
1.1624816203
1.1625660557
1.2222214043
1.2218626960
1.2216785994
1.2213596679
1.2209411587
1.2204450249
1.2198822799
1.2192567426
1.2185682070
1.2178145941
1.2169929625
1.2161006182
1.2151348992
1.2140932131
1.2129728053
1.2117708502
1.2104852581
1.2091141177
1.2076567873
1.2061145862
1.2044918385
1.2027962867
1.2010402192
1.1992409579
1.1974221320
1.1956133746
1.1938498617
1.1921715781
1.1906215388
1.1892437036
1.1880806602
1.1871706941
1.1865453152
1.1862270946
1.1854363513
1.1887147194
1.1884711656
1.1881662026
1.1875652653
1.1866844999
1.1855471907
1.1841826676
1.1826247435
1.1809101855
1.1790772627
1.1771641665
1.1752078005
1.1732431084
1.1713027510
1.1694175087
1.1676179450
1.1659374279
1.1644168775
1.1631122580
1.1621043055
1.1615078337
1.1616605648
1.2208454649
1.2205215985
1.2202795946
1.2199049510
1.2194545606
1.2189559627
1.2184177410
1.2178383445
1.2172118824
1.2165312951
1.2157899051
1.2149816461
1.2141015400
1.2131451688
1.2121084134
1.2109873503
1.2097785725
1.2084794144
1.2070884370
1.2056063724
1.2040371995
1.2023885654
1.2006721586
1.1989056859
1.1971130827
1.1953244601
1.1935756578
1.1919074511
1.1903637180
1.1889893312
1.1878277900
1.1869181925
1.1862927305
1.1859744704
1.1851260432
1.1892840968
1.1889162497
1.1886058415
1.1879941824
1.1870975416
1.1859394022
1.1845493475
1.1829614212
1.1812125122
1.1793407540
1.1773837042
1.1753768854
1.1733527856
1.1713401394
1.1693640211
1.1674473836
1.1656145831
1.1638981485
1.1623515158
1.1610704037
1.1602249654
1.1604358634
1.2196894544
1.2193910160
1.2190225417
1.2185396643
1.2180285471
1.2175171798
1.2170045308
1.2164779528
1.2159221409
1.2153228558
1.2146683423
1.2139492011
1.2131578070
1.2122880991
1.2113346161
1.2102925014
1.2091575622
1.2079263870
1.2065970380
1.2051698389
1.2036485405
1.2020406783
1.2003579359
1.1986183643
1.1968463671
1.1950726782
1.1933338882
1.1916716346
1.1901307004
1.1887568909
1.1875946092
1.1866837451
1.1860571447
1.1857383458
1.1848340775
1.1897733631
1.1892910576
1.1889768581
1.1883577804
1.1874501637
1.1862776277
1.1848699555
1.1832613854
1.1814889216
1.1795905774
1.1776032651
1.1755609993
1.1734933812
1.1714241103
1.1693701570
1.1673421466
1.1653468499
1.1633942287
1.1615146652
1.1597964465
1.1584624061
1.1587210505
1.2188763272
1.2185952358
1.2179480830
1.2172658763
1.2166551754
1.2161235723
1.2156442312
1.2151835903
1.2147119023
1.2142053772
1.2136463128
1.2130217945
1.2123221737
1.2115399631
1.2106688551
1.2097032752
1.2086385648
1.2074709341
1.2061981376
1.2048203511
1.2033412158
1.2017682340
1.2001133941
1.1983951967
1.1966386553
1.1948752090
1.1931422715
1.1914823834
1.1899412504
1.1885656020
1.1874007203
1.1864872508
1.1858586568
1.1855389183
1.1845821911
1.1901853886
1.1895996853
1.1892832411
1.1886598575
1.1877459327
1.1865652261
1.1851477555
1.1835280408
1.1817433689
1.1798318993
1.1778302540
1.1757713479
1.1736822113
1.1715813482
1.1694761843
1.1673605554
1.1652126933
1.1629963902
1.1606732352
1.1582467897
1.1558938268
1.1561891883
1.2186264131
1.2183561092
1.2170799012
1.2160466216
1.2152954163
1.2147514685
1.2143286346
1.2139585572
1.2135920958
1.2131942220
1.2127413282
1.2122177791
1.2116127538
1.2109183410
1.2101279421
1.2092358312
1.2082372162
1.2071282459
1.2059066588
1.2045727614
1.2031301447
1.2015864041
1.1999540826
1.1982522448
1.1965065898
1.1947493348
1.1930187497
1.1913582890
1.1898145699
1.1884352129
1.1872663316
1.1863492748
1.1857180733
1.1853971124
1.1843927715
1.1905227334
1.1898456830
1.1895283442
1.1889033951
1.1879873227
1.1868040898
1.1853840678
1.1837622620
1.1819765810
1.1800658657
1.1780672448
1.1760136793
1.1739311759
1.1718348713
1.1697241973
1.1675755491
1.1653302517
1.1628757903
1.1600195093
1.1564676126
1.1518873024
1.1522073735
1.2193716288
1.2191072769
1.2163685686
1.2147542688
1.2138531434
1.2133494034
1.2130400194
1.2128042999
1.2125734053
1.2123051278
1.2119711401
1.2115551805
1.2110470988
1.2104398639
1.2097276022
1.2089050511
1.2079677606
1.2069121141
1.2057360902
1.2044405126
1.2030289759
1.2015091185
1.1998943815
1.1982044645
1.1964658004
1.1947114026
1.1929804017
1.1913171494
1.1897691317
1.1883847999
1.1872110280
1.1862897965
1.1856556407
1.1853333043
1.1842875385
1.1907870665
1.1900314835
1.1897143229
1.1890900054
1.1881751665
1.1869940771
1.1855776357
1.1839616117
1.1821849871
1.1802880176
1.1783095163
1.1762844021
1.1742407614
1.1721953566
1.1701475031
1.1680676466
1.1658730537
1.1633734879
1.1601393635
1.1551677915
1.1460373607
1.1463730115
1.2220148256
1.2217536609
1.2155177587
1.2130588235
1.2121369633
1.2118327498
1.2117539005
1.2117262218
1.2116719639
1.2115568235
1.2113549221
1.2110522088
1.2106419457
1.2101198161
1.2094817920
1.2087238416
1.2078423391
1.2068342420
1.2056980071
1.2044349505
1.2030489472
1.2015480515
1.1999465070
1.1982647014
1.1965298258
1.1947756930
1.1930422714
1.1913747563
1.1898214295
1.1884314846
1.1872524605
1.1863268784
1.1856896996
1.1853659686
1.1842861701
1.1909792566
1.1901585101
1.1898422598
1.1892200888
1.1883088494
1.1871332345
1.1857248451
1.1841204869
1.1823606532
1.1804877411
1.1785434937
1.1765670195
1.1745927001
1.1726473891
1.1707485476
1.1689027521
1.1671058223
1.1653521163
1.1636706365
1.1622468161
1.1619172405
1.1695498133
1.1797712637
1.1736051442
1.1937876718
1.2048968757
1.2074006414
1.2086255358
1.2094119598
1.2099945801
1.2104322862
1.2107378904
1.2109150853
1.2109740201
1.2109140592
1.2107270169
1.2104125799
1.2099711638
1.2094017103
1.2087020765
1.2078698943
1.2069029818
1.2058005288
1.2045641620
1.2031982984
1.2017117731
1.2001195168
1.1984426194
1.1967090226
1.1949533090
1.1932162229
1.1915437181
1.1899847691
1.1885891963
1.1874050838
1.1864753835
1.1858353885
1.1855103755
1.1844049984
1.1910988262
1.1902266649
1.1899116808
1.1892924028
1.1883859564
1.1872175412
1.1858195793
1.1842300796
1.1824912883
1.1806481042
1.1787457327
1.1768282170
1.1749371322
1.1731100265
1.1713811226
1.1697841364
1.1683592743
1.1671727131
1.1663602517
1.1662274461
1.1675377678
1.1727938545
1.1793132472
1.1731615059
1.1880160038
1.1976025569
1.2023435598
1.2052297099
1.2071174084
1.2084175038
1.2093310388
1.2099627765
1.2103715335
1.2105997363
1.2106751354
1.2105981606
1.2103724951
1.2100040408
1.2094951970
1.2088460282
1.2080556186
1.2071228140
1.2060477457
1.2048322154
1.2034813128
1.2020048782
1.2004184715
1.1987438568
1.1970096860
1.1952512452
1.1935099640
1.1918324392
1.1902682080
1.1888675766
1.1876790326
1.1867458290
1.1861034822
1.1857774222
1.1846558347
1.1911438892
1.1902343235
1.1899205820
1.1893041571
1.1884024756
1.1872412768
1.1858538337
1.1842793805
1.1825619235
1.1807488393
1.1788887065
1.1770302346
1.1752214622
1.1735087889
1.1719387374
1.1705618176
1.1694396249
1.1686613329
1.1683725453
1.1688248754
1.1704725666
1.1741258896
1.1784204925
1.1792362507
1.1877631645
1.1948456661
1.1996740215
1.2031036424
1.2055562456
1.2073223934
1.2085918715
1.2094889300
1.2100952454
1.2104701401
1.2106616939
1.2106806680
1.2105313088
1.2102244797
1.2097658622
1.2091576808
1.2084004371
1.2074940857
1.2064392022
1.2052384455
1.2038976239
1.2024273442
1.2008437850
1.1991693496
1.1974333356
1.1956716427
1.1939262681
1.1922443114
1.1906757176
1.1892711153
1.1880792336
1.1871434810
1.1864994750
1.1861727101
1.1850450464
1.1911118967
1.1901791251
1.1898662596
1.1892519287
1.1883538546
1.1871982879
1.1858192858
1.1842571873
1.1825575510
1.1807698943
1.1789456418
1.1771373123
1.1753979746
1.1737804378
1.1723392722
1.1711344465
1.1702368384
1.1697403105
1.1697781724
1.1705414435
1.1722920906
1.1752948070
1.1789246932
1.1819562658
1.1880252323
1.1937587882
1.1983684808
1.2019656830
1.2047048492
1.2067570264
1.2082700392
1.2093612035
1.2101181300
1.2106067797
1.2108879009
1.2109823194
1.2108924198
1.2106328323
1.2102119213
1.2096338130
1.2089001050
1.2080116401
1.2069695820
1.2057775485
1.2044420387
1.2029742405
1.2013908950
1.1997149809
1.1979763538
1.1962114137
1.1944625854
1.1927773079
1.1912057596
1.1897987100
1.1886049509
1.1876678872
1.1870231048
1.1866960660
1.1855730720
1.1909994358
1.1900577932
1.1897451642
1.1891315903
1.1882350483
1.1870822158
1.1857077809
1.1841529456
1.1824644463
1.1806933851
1.1788932442
1.1771192273
1.1754278373
1.1738760660
1.1725234228
1.1714351496
1.1706863136
1.1703706695
1.1706094301
1.1715536058
1.1733686132
1.1761508774
1.1796085665
1.1833306467
1.1884417084
1.1935221682
1.1979550180
1.2016056004
1.2044932763
1.2067129982
1.2083782923
1.2095956785
1.2104530835
1.2110183699
1.2113587946
1.2115031908
1.2114527668
1.2112236702
1.2108261565
1.2102655988
1.2095447359
1.2086649164
1.2076285176
1.2064393962
1.2051045881
1.2036358075
1.2020503181
1.2003716032
1.1986299728
1.1968621961
1.1951109667
1.1934238819
1.1918511622
1.1904435217
1.1892496245
1.1883127026
1.1876681704
1.1873413557
1.1862341969
1.1908083282
1.1898725336
1.1895593890
1.1889449853
1.1880474943
1.1868939003
1.1855193192
1.1839655048
1.1822799073
1.1805145504
1.1787240772
1.1769651769
1.1752962300
1.1737765028
1.1724682071
1.1714395589
1.1707682643
1.1705489874
1.1708987412
1.1719528180
1.1738411836
1.1766149139
1.1801000931
1.1840804904
1.1889225903
1.1937999754
1.1981901740
1.2018872861
1.2048584227
1.2071664823
1.2089101372
1.2101914212
1.2110981018
1.2117001432
1.2120673327
1.2122333491
1.2121998058
1.2119828265
1.2115935446
1.2110376108
1.2103189262
1.2094395582