<VTKFile type="UnstructuredGrid" version="0.1">
	<UnstructuredGrid>
		<Piece NumberOfPoints="13548" NumberOfCells="3387">
			<CellData>
				<DataArray type="Int32" Name="ghost" NumberOfComponents="1" Format="ascii">
1
1
1
1
1
1
1
1
1
1
1
1
1
1
1
1
1
1
1
1
1
1
1
1
1
1
1
1
1
1
1
1
1
1
1
1
1
1
1
1
1
1
1
1
1
1
1
1
1
1
1
1
1
1
1
1
1
1
0
0
0
0
0
0
0
0
0
0
0
0
0
0
0
0
0
0
0
0
1
1
0
0
0
0
0
0
0
0
0
0
0
0
0
0
0
0
0
0
0
0
0
0
0
0
0
0
0
0
0
0
0
0
0
1
1
0
0
0
0
0
0
0
0
0
0
0
0
0
0
0
0
0
0
0
0
1
1
0
0
0
0
0
0
0
0
0
0
0
0
0
0
0
0
0
0
0
0
0
0
0
0
0
0
0
0
0
0
0
0
0
1
1
0
0
0
0
0
0
0
0
0
0
0
0
0
0
0
0
0
0
0
0
1
1
0
0
0
0
0
0
0
0
0
0
0
0
0
0
0
0
0
0
0
0
0
0
0
0
0
0
0
0
0
0
0
0
0
1
1
0
0
0
0
0
0
0
0
0
0
0
0
0
0
0
0
0
0
0
0
1
1
0
0
0
0
0
0
0
0
0
0
0
0
0
0
0
0
0
0
0
0
0
0
0
0
0
0
0
0
0
0
0
0
0
1
1
0
0
0
0
0
0
0
0
0
0
0
0
0
0
0
0
0
0
0
0
1
1
0
0
0
0
0
0
0
0
0
0
0
0
0
0
0
0
0
0
0
0
0
0
0
0
0
0
0
0
0
0
0
0
0
1
1
0
0
0
0
0
0
0
0
0
0
0
0
0
0
0
0
0
0
0
0
1
1
0
0
0
0
0
0
0
0
0
0
0
0
0
0
0
0
0
0
0
0
0
0
0
0
0
0
0
0
0
0
0
0
0
1
1
0
0
0
0
0
0
0
0
0
0
0
0
0
0
0
0
0
0
0
0
1
1
0
0
0
0
0
0
0
0
0
0
0
0
0
0
0
0
0
0
0
0
0
0
0
0
0
0
0
0
0
0
0
0
0
1
1
0
0
0
0
0
0
0
0
0
0
0
0
0
0
0
0
0
0
0
0
1
1
0
0
0
0
0
0
0
0
0
0
0
0
0
0
0
0
0
0
0
0
0
0
0
0
0
0
0
0
0
0
0
0
0
1
1
0
0
0
0
0
0
0
0
0
0
0
0
0
0
0
0
0
0
0
0
1
1
0
0
0
0
0
0
0
0
0
0
0
0
0
0
0
0
0
0
0
0
0
0
0
0
0
0
0
0
0
0
0
0
0
1
1
0
0
0
0
0
0
0
0
0
0
0
0
0
0
0
0
0
0
0
0
1
1
0
0
0
0
0
0
0
0
0
0
0
0
0
0
0
0
0
0
0
0
0
0
0
0
0
0
0
0
0
0
0
0
0
1
1
0
0
0
0
0
0
0
0
0
0
0
0
0
0
0
0
0
0
0
0
1
1
0
0
0
0
0
0
0
0
0
0
0
0
0
0
0
0
0
0
0
0
0
0
0
0
0
0
0
0
0
0
0
0
0
1
1
0
0
0
0
0
0
0
0
0
0
0
0
0
0
0
0
0
0
0
0
1
1
0
0
0
0
0
0
0
0
0
0
0
0
0
0
0
0
0
0
0
0
0
0
0
0
0
0
0
0
0
0
0
0
0
1
1
0
0
0
0
0
0
0
0
0
0
0
0
0
0
0
0
0
0
0
0
1
1
0
0
0
0
0
0
0
0
0
0
0
0
0
0
0
0
0
0
0
0
0
0
0
0
0
0
0
0
0
0
0
0
0
1
1
0
0
0
0
0
0
0
0
0
0
0
0
0
0
0
0
0
0
0
0
1
1
0
0
0
0
0
0
0
0
0
0
0
0
0
0
0
0
0
0
0
0
0
0
0
0
0
0
0
0
0
0
0
0
0
1
1
0
0
0
0
0
0
0
0
0
0
0
0
0
0
0
0
0
0
0
0
1
1
0
0
0
0
0
0
0
0
0
0
0
0
0
0
0
0
0
0
0
0
0
0
0
0
0
0
0
0
0
0
0
0
0
1
1
0
0
0
0
0
0
0
0
0
0
0
0
0
0
0
0
0
0
0
0
1
1
0
0
0
0
0
0
0
0
0
0
0
0
0
0
0
0
0
0
0
0
0
0
0
0
0
0
0
0
0
0
0
0
0
1
1
0
0
0
0
0
0
0
0
0
0
0
0
0
0
0
0
0
0
0
0
1
1
0
0
0
0
0
0
0
0
0
0
0
0
0
0
0
0
0
0
0
0
0
0
0
0
0
0
0
0
0
0
0
0
0
1
1
0
0
0
0
0
0
0
0
0
0
0
0
0
0
0
0
0
0
0
0
1
1
0
0
0
0
0
0
0
0
0
0
0
0
0
0
0
0
0
0
0
0
0
0
0
0
0
0
0
0
0
0
0
0
0
1
1
0
0
0
0
0
0
0
0
0
0
0
0
0
0
0
0
0
0
0
0
1
1
0
0
0
0
0
0
0
0
0
0
0
0
0
0
0
0
0
0
0
0
0
0
0
0
0
0
0
0
0
0
0
0
0
1
1
0
0
0
0
0
0
0
0
0
0
0
0
0
0
0
0
0
0
0
0
1
1
0
0
0
0
0
0
0
0
0
0
0
0
0
0
0
0
0
0
0
0
0
0
0
0
0
0
0
0
0
0
0
0
0
1
1
0
0
0
0
0
0
0
0
0
0
0
0
0
0
0
0
0
0
0
0
1
1
0
0
0
0
0
0
0
0
0
0
0
0
0
0
0
0
0
0
0
0
0
0
0
0
0
0
0
0
0
0
0
0
0
1
1
0
0
0
0
0
0
0
0
0
0
0
0
0
0
0
0
0
0
0
0
1
1
0
0
0
0
0
0
0
0
0
0
0
0
0
0
0
0
0
0
0
0
0
0
0
0
0
0
0
0
0
0
0
0
0
1
1
0
0
0
0
0
0
0
0
0
0
0
0
0
0
0
0
0
0
0
0
1
1
0
0
0
0
0
0
0
0
0
0
0
0
0
0
0
0
0
0
0
0
0
0
0
0
0
0
0
0
0
0
0
0
0
1
1
0
0
0
0
0
0
0
0
0
0
0
0
0
0
0
0
0
0
0
0
1
1
0
0
0
0
0
0
0
0
0
0
0
0
0
0
0
0
0
0
0
0
0
0
0
0
0
0
0
0
0
0
0
0
0
1
1
0
0
0
0
0
0
0
0
0
0
0
0
0
0
0
0
0
0
0
0
0
1
1
0
0
0
0
0
0
0
0
0
0
0
0
0
0
0
0
0
0
0
0
0
0
0
0
0
0
0
0
0
0
0
0
0
0
1
1
0
0
0
0
0
0
0
0
0
0
0
0
0
0
0
0
0
0
0
0
0
0
0
0
0
0
0
0
0
0
0
0
0
0
0
0
0
0
0
0
0
0
0
0
0
0
0
0
0
0
0
0
0
0
0
0
0
1
1
0
0
0
0
0
0
0
0
0
0
0
0
0
0
0
0
0
0
0
0
0
0
0
0
0
0
0
0
0
0
0
0
0
0
0
0
0
0
0
0
0
0
0
0
0
0
0
0
0
0
0
0
0
0
0
0
0
1
1
0
0
0
0
0
0
0
0
0
0
0
0
0
0
0
0
0
0
0
0
0
0
0
0
0
0
0
0
0
0
0
0
0
0
0
0
0
0
0
0
0
0
0
0
0
0
0
0
0
0
0
0
0
0
0
0
0
1
1
0
0
0
0
0
0
0
0
0
0
0
0
0
0
0
0
0
0
0
0
0
0
0
0
0
0
0
0
0
0
0
0
0
0
0
0
0
0
0
0
0
0
0
0
0
0
0
0
0
0
0
0
0
0
0
0
0
1
1
0
0
0
0
0
0
0
0
0
0
0
0
0
0
0
0
0
0
0
0
0
0
0
0
0
0
0
0
0
0
0
0
0
0
0
0
0
0
0
0
0
0
0
0
0
0
0
0
0
0
0
0
0
0
0
0
0
1
1
0
0
0
0
0
0
0
0
0
0
0
0
0
0
0
0
0
0
0
0
0
0
0
0
0
0
0
0
0
0
0
0
0
0
0
0
0
0
0
0
0
0
0
0
0
0
0
0
0
0
0
0
0
0
0
0
0
1
1
0
0
0
0
0
0
0
0
0
0
0
0
0
0
0
0
0
0
0
0
0
0
0
0
0
0
0
0
0
0
0
0
0
0
0
0
0
0
0
0
0
0
0
0
0
0
0
0
0
0
0
0
0
0
0
0
0
1
1
0
0
0
0
0
0
0
0
0
0
0
0
0
0
0
0
0
0
0
0
0
0
0
0
0
0
0
0
0
0
0
0
0
0
0
0
0
0
0
0
0
0
0
0
0
0
0
0
0
0
0
0
0
0
0
0
0
1
1
0
0
0
0
0
0
0
0
0
0
0
0
0
0
0
0
0
0
0
0
0
0
0
0
0
0
0
0
0
0
0
0
0
0
0
0
0
0
0
0
0
0
0
0
0
0
0
0
0
0
0
0
0
0
0
0
0
1
1
0
0
0
0
0
0
0
0
0
0
0
0
0
0
0
0
0
0
0
0
0
0
0
0
0
0
0
0
0
0
0
0
0
0
0
0
0
0
0
0
0
0
0
0
0
0
0
0
0
0
0
0
0
0
0
0
0
1
1
0
0
0
0
0
0
0
0
0
0
0
0
0
0
0
0
0
0
0
0
0
1
1
0
0
0
0
0
0
0
0
0
0
0
0
0
0
0
0
0
0
0
0
0
0
0
0
0
0
0
0
0
0
0
0
0
0
1
1
0
0
0
0
0
0
0
0
0
0
0
0
0
0
0
0
0
0
0
0
1
1
0
0
0
0
0
0
0
0
0
0
0
0
0
0
0
0
0
0
0
0
0
0
0
0
0
0
0
0
0
0
0
0
0
1
1
0
0
0
0
0
0
0
0
0
0
0
0
0
0
0
0
0
0
0
0
1
1
0
0
0
0
0
0
0
0
0
0
0
0
0
0
0
0
0
0
0
0
0
0
0
0
0
0
0
0
0
0
0
0
0
1
1
0
0
0
0
0
0
0
0
0
0
0
0
0
0
0
0
0
0
0
0
1
1
0
0
0
0
0
0
0
0
0
0
0
0
0
0
0
0
0
0
0
0
0
0
0
0
0
0
0
0
0
0
0
0
0
1
1
0
0
0
0
0
0
0
0
0
0
0
0
0
0
0
0
0
0
0
0
1
1
0
0
0
0
0
0
0
0
0
0
0
0
0
0
0
0
0
0
0
0
0
0
0
0
0
0
0
0
0
0
0
0
0
1
1
0
0
0
0
0
0
0
0
0
0
0
0
0
0
0
0
0
0
0
0
1
1
0
0
0
0
0
0
0
0
0
0
0
0
0
0
0
0
0
0
0
0
0
0
0
0
0
0
0
0
0
0
0
0
0
1
1
0
0
0
0
0
0
0
0
0
0
0
0
0
0
0
0
0
0
0
0
1
1
0
0
0
0
0
0
0
0
0
0
0
0
0
0
0
0
0
0
0
0
0
0
0
0
0
0
0
0
0
0
0
0
0
1
1
0
0
0
0
0
0
0
0
0
0
0
0
0
0
0
0
0
0
0
0
1
1
0
0
0
0
0
0
0
0
0
0
0
0
0
0
0
0
0
0
0
0
0
0
0
0
0
0
0
0
0
0
0
0
0
1
1
0
0
0
0
0
0
0
0
0
0
0
0
0
0
0
0
0
0
0
0
1
1
0
0
0
0
0
0
0
0
0
0
0
0
0
0
0
0
0
0
0
0
0
0
0
0
0
0
0
0
0
0
0
0
0
1
1
0
0
0
0
0
0
0
0
0
0
0
0
0
0
0
0
0
0
0
0
1
1
0
0
0
0
0
0
0
0
0
0
0
0
0
0
0
0
0
0
0
0
0
0
0
0
0
0
0
0
0
0
0
0
0
1
1
0
0
0
0
0
0
0
0
0
0
0
0
0
0
0
0
0
0
0
0
1
1
0
0
0
0
0
0
0
0
0
0
0
0
0
0
0
0
0
0
0
0
0
0
0
0
0
0
0
0
0
0
0
0
0
1
1
0
0
0
0
0
0
0
0
0
0
0
0
0
0
0
0
0
0
0
0
1
1
0
0
0
0
0
0
0
0
0
0
0
0
0
0
0
0
0
0
0
0
0
0
0
0
0
0
0
0
0
0
0
0
0
1
1
0
0
0
0
0
0
0
0
0
0
0
0
0
0
0
0
0
0
0
0
1
1
0
0
0
0
0
0
0
0
0
0
0
0
0
0
0
0
0
0
0
0
0
0
0
0
0
0
0
0
0
0
0
0
0
1
1
0
0
0
0
0
0
0
0
0
0
0
0
0
0
0
0
0
0
0
0
1
1
0
0
0
0
0
0
0
0
0
0
0
0
0
0
0
0
0
0
0
0
0
0
0
0
0
0
0
0
0
0
0
0
0
1
1
0
0
0
0
0
0
0
0
0
0
0
0
0
0
0
0
0
0
0
0
1
1
0
0
0
0
0
0
0
0
0
0
0
0
0
0
0
0
0
0
0
0
0
0
0
0
0
0
0
0
0
0
0
0
0
1
1
0
0
0
0
0
0
0
0
0
0
0
0
0
0
0
0
0
0
0
0
1
1
0
0
0
0
0
0
0
0
0
0
0
0
0
0
0
0
0
0
0
0
0
0
0
0
0
0
0
0
0
0
0
0
0
1
1
0
0
0
0
0
0
0
0
0
0
0
0
0
0
0
0
0
0
0
0
1
1
0
0
0
0
0
0
0
0
0
0
0
0
0
0
0
0
0
0
0
0
0
0
0
0
0
0
0
0
0
0
0
0
0
1
1
0
0
0
0
0
0
0
0
0
0
0
0
0
0
0
0
0
0
0
0
1
1
0
0
0
0
0
0
0
0
0
0
0
0
0
0
0
0
0
0
0
0
0
0
0
0
0
0
0
0
0
0
0
0
0
1
1
0
0
0
0
0
0
0
0
0
0
0
0
0
0
0
0
0
0
0
0
1
1
0
0
0
0
0
0
0
0
0
0
0
0
0
0
0
0
0
0
0
0
0
0
0
0
0
0
0
0
0
0
0
0
0
1
1
0
0
0
0
0
0
0
0
0
0
0
0
0
0
0
0
0
0
0
0
1
1
0
0
0
0
0
0
0
0
0
0
0
0
0
0
0
0
0
0
0
0
0
0
0
0
0
0
0
0
0
0
0
0
0
1
1
0
0
0
0
0
0
0
0
0
0
0
0
0
0
0
0
0
0
0
0
1
1
0
0
0
0
0
0
0
0
0
0
0
0
0
0
0
0
0
0
0
0
0
0
0
0
0
0
0
0
0
0
0
0
0
1
1
0
0
0
0
0
0
0
0
0
0
0
0
0
0
0
0
0
0
0
0
1
1
0
0
0
0
0
0
0
0
0
0
0
0
0
0
0
0
0
0
0
0
0
0
0
0
0
0
0
0
0
0
0
0
0
1
1
1
1
1
1
1
1
1
1
1
1
1
1
1
1
1
1
1
1
1
1
1
1
1
1
1
1
1
1
1
1
1
1
1
1
1
1
1
1
1
1
1
1
1
1
1
1
1
1
1
1
1
1
1
1
1
1
				</DataArray>
				<DataArray type="Float64" Name="h" NumberOfComponents="1" Format="ascii">
1.1226486150
1.1245748022
1.1245235855
1.1244248483
1.1242826241
1.1241025671
1.1238915519
1.1236570746
1.1234070132
1.1231492004
1.1228910015
1.1226391517
1.1223995262
1.1221770634
1.1219757422
1.1217985917
1.1216479342
1.1215254172
1.1214321308
1.1213689593
1.1213364900
1.1213364900
1.2519296294
1.2503504728
1.2501725172
1.2498266892
1.2493267824
1.2486933798
1.2479535268
1.2471399547
1.2462906267
1.2454478849
1.2446571404
1.2439656100
1.2434207159
1.2430680889
1.2429494150
1.2431000386
1.2435463783
1.2443033433
1.2453720139
1.2467380299
1.2483709328
1.2502248601
1.2522410003
1.2543514985
1.2564842383
1.2585683930
1.2605394826
1.2623429716
1.2639365725
1.2652903664
1.2663851665
1.2672104246
1.2677613596
1.2680363425
1.2680363425
1.1245748022
1.1264893154
1.1264249741
1.1263002177
1.1261195675
1.1258894259
1.1256176903
1.1253131551
1.1249852560
1.1246436241
1.1242976244
1.1239561403
1.1236272965
1.1233183159
1.1230354270
1.1227838116
1.1225677751
1.1223907133
1.1222551821
1.1221632005
1.1221161279
1.1213364900
1.2503504728
1.2487082220
1.2485454571
1.2482296064
1.2477740998
1.2471990120
1.2465307549
1.2458013199
1.2450478103
1.2443115555
1.2436367499
1.2430691210
1.2426542344
1.2424353905
1.2424513834
1.2427340232
1.2433055264
1.2441760429
1.2453415563
1.2467826437
1.2484643616
1.2503375135
1.2523416786
1.2544095600
1.2564719267
1.2584630016
1.2603250369
1.2620112282
1.2634872785
1.2647308399
1.2657293767
1.2664777508
1.2669751898
1.2672226804
1.2680363425
1.1245675814
1.1264585172
1.1263979795
1.1262806810
1.1261108613
1.1258945261
1.1256390841
1.1253527790
1.1250444643
1.1247231840
1.1243977359
1.1240764753
1.1237670497
1.1234762638
1.1232099892
1.1229731104
1.1227696910
1.1226029364
1.1224752566
1.1223885655
1.1223441544
1.1215881703
1.2500539834
1.2484279682
1.2482661620
1.2479523266
1.2474999835
1.2469293258
1.2462668883
1.2455447666
1.2448001315
1.2440743252
1.2434114908
1.2428572387
1.2424569522
1.2422536983
1.2422860024
1.2425853891
1.2431738018
1.2440611493
1.2452432223
1.2467004730
1.2483979061
1.2502863062
1.2523052511
1.2543874307
1.2564635675
1.2584677919
1.2603422180
1.2620398638
1.2635262319
1.2647787666
1.2657847388
1.2665388452
1.2670401874
1.2672896694
1.2680950750
1.1245584368
1.1264031333
1.1263499552
1.1262470889
1.1260982334
1.1259086313
1.1256847523
1.1254337804
1.1251634477
1.1248816661
1.1245961366
1.1243141916
1.1240425510
1.1237872024
1.1235533182
1.1233451954
1.1231664176
1.1230198087
1.1229074843
1.1228311448
1.1227919428
1.1220822558
1.2494516477
1.2478569668
1.2476974964
1.2473884906
1.2469435910
1.2463831416
1.2457338259
1.2450278478
1.2443024194
1.2435988291
1.2429610574
1.2424344416
1.2420639851
1.2418922929
1.2419573749
1.2422902221
1.2429122764
1.2438330165
1.2450479013
1.2465371877
1.2482657805
1.2501844327
1.2522327232
1.2543433228
1.2564468633
1.2584772947
1.2603764536
1.2620970000
1.2636040233
1.2648745454
1.2658954375
1.2666610542
1.2671702388
1.2674237219
1.2682126091
1.1245471216
1.1263245037
1.1262817819
1.1261994253
1.1260803741
1.1259287989
1.1257498488
1.1255492157
1.1253330503
1.1251076629
1.1248791984
1.1246535322
1.1244360552
1.1242315780
1.1240442574
1.1238775302
1.1237342700
1.1236167309
1.1235265844
1.1234652062
1.1234335353
1.1227915616
1.2485523287
1.2470029532
1.2468472105
1.2465458677
1.2461127075
1.2455682476
1.2449393323
1.2442582647
1.2435622590
1.2428924706
1.2422925957
1.2418075353
1.2414817120
1.2413570417
1.2414707811
1.2418531522
1.2425248903
1.2434948750
1.2447581239
1.2462946495
1.2480692282
1.2500325886
1.2521243335
1.2542771151
1.2564214415
1.2584909876
1.2604271656
1.2621820800
1.2637201757
1.2650178064
1.2660612194
1.2668442302
1.2673652727
1.2676248074
1.2683888977
1.1245331638
1.1262243655
1.1261945705
1.1261375790
1.1260554092
1.1259509293
1.1258276813
1.1256895371
1.1255407127
1.1253855517
1.1252282793
1.1250729611
1.1249233262
1.1247826991
1.1246539411
1.1245393788
1.1244409574
1.1243601755
1.1242981085
1.1242556906
1.1242335689
1.1236789223
1.2473683199
1.2458766070
1.2457260119
1.2454352043
1.2450181178
1.2444954497
1.2438941983
1.2432467363
1.2425902200
1.2419655746
1.2414160753
1.2409860140
1.2407190265
1.2406561191
1.2408335658
1.2412806100
1.2420170971
1.2430511782
1.2443773545
1.2459753764
1.2478098890
1.2498316356
1.2519802837
1.2541884875
1.2563866040
1.2585079436
1.2604933274
1.2622940854
1.2638737587
1.2652077567
1.2662814387
1.2670878620
1.2676248810
1.2678925700
1.2686235343
1.1245159206
1.1261047503
1.1260896196
1.1260614167
1.1260211414
1.1259702202
1.1259104124
1.1258435648
1.1257717312
1.1256970457
1.1256215603
1.1255472758
1.1254760049
1.1254093378
1.1253486026
1.1252947924
1.1252487181
1.1252109406
1.1251817830
1.1251616157
1.1251507073
1.1247006395
1.2459149926
1.2444912546
1.2443472585
1.2440698974
1.2436732522
1.2431781864
1.2426118214
1.2420065446
1.2413993711
1.2408308754
1.2403437591
1.2399815196
1.2397868005
1.2397994784
1.2400546399
1.2405803533
1.2413954364
1.2425072246
1.2439096603
1.2455822540
1.2474895511
1.2495823740
1.2518005335
1.2540767256
1.2563411323
1.2585266146
1.2605732309
1.2624312815
1.2640631066
1.2654428611
1.2665547180
1.2673907171
1.2679479409
1.2682259459
1.2689153475
1.1244943774
1.1259676034
1.1259680999
1.1259705974
1.1259750494
1.1259813988
1.1259895644
1.1259992918
1.1260103781
1.1260226330
1.1260358007
1.1260496632
1.1260639463
1.1260783218
1.1260923926
1.1261056223
1.1261174960
1.1261274565
1.1261349144
1.1261395444
1.1261411439
1.1258100576
1.2442110279
1.2428631836
1.2427272504
1.2424662435
1.2420943744
1.2416326395
1.2411082285
1.2405534656
1.2400051151
1.2395032622
1.2390898645
1.2388074348
1.2386974141
1.2387983514
1.2391439461
1.2397609407
1.2406670169
1.2418686485
1.2433592405
1.2451181009
1.2471097409
1.2492851694
1.2515844420
1.2539403726
1.2562829566
1.2585444999
1.2606641287
1.2625908410
1.2642854283
1.2657204327
1.2668785082
1.2677503871
1.2683321531
1.2686226917
1.2692619064
1.1244677178
1.1258151723
1.1258315084
1.1258651518
1.1259150497
1.1259797140
1.1260572786
1.1261454378
1.1262417661
1.1263437587
1.1264488315
1.1265544938
1.1266582957
1.1267578695
1.1268509450
1.1269352881
1.1270088788
1.1270698626
1.1271165702
1.1271478385
1.1271628898
1.1269619753
1.2422769327
1.2410102374
1.2408838279
1.2406420421
1.2402991931
1.2398763584
1.2394007196
1.2389044352
1.2384238901
1.2379985193
1.2376693588
1.2374777370
1.2374636974
1.2376642597
1.2381115869
1.2388309498
1.2398388093
1.2411408558
1.2427299490
1.2445852603
1.2466713941
1.2489396770
1.2513305349
1.2537770059
1.2562089232
1.2585579298
1.2607620027
1.2627685611
1.2645364766
1.2660362702
1.2672486981
1.2681628643
1.2687735978
1.2690789339
1.2696590306
1.1244354157
1.1256499553
1.1256816690
1.1257455860
1.1258397487
1.1259613745
1.1261069707
1.1262723430
1.1264529934
1.1266442254
1.1268412097
1.1270392190
1.1272336143
1.1274199255
1.1275939023
1.1277514697
1.1278889336
1.1280029608
1.1280906237
1.1281497647
1.1281789121
1.1281159557
1.2401346083
1.2389514806
1.2388360274
1.2386162359
1.2383064797
1.2379278495
1.2375074216
1.2370770692
1.2366726494
1.2363327790
1.2360973832
1.2360064173
1.2360983259
1.2364084478
1.2369672403
1.2377984416
1.2389172241
1.2403285125
1.2420248715
1.2439852326
1.2461744904
1.2485445251
1.2510362243
1.2535829720
1.2561144991
1.2585617207
1.2608612249
1.2629585065
1.2648101378
1.2663841936
1.2676591199
1.2686220290
1.2692662067
1.2695886310
1.2701002300
1.1243971815
1.1254745182
1.1255205899
1.1256128188
1.1257484930
1.1259237423
1.1261336905
1.1263725105
1.1266338783
1.1269111222
1.1271973385
1.1274856769
1.1277693604
1.1280418042
1.1282967073
1.1285280317
1.1287302463
1.1288983520
1.1290279684
1.1291157638
1.1291594318
1.1292388292
1.2378074988
1.2367074688
1.2366043344
1.2364091311
1.2361362416
1.2358066863
1.2354473258
1.2350896153
1.2347687319
1.2345223010
1.2343889601
1.2344071012
1.2346134163
1.2350413828
1.2357196865
1.2366704220
1.2379075167
1.2394351379
1.2412458339
1.2433181900
1.2456176373
1.2480968100
1.2506973906
1.2533530209
1.2559934536
1.2585488151
1.2609541111
1.2631525537
1.2650979736
1.2667555724
1.2681010572
1.2691191468
1.2698012539
1.2701430620
1.2705761638
1.1243533558
1.1252917910
1.1253507859
1.1254685515
1.1256418097
1.1258658618
1.1261347534
1.1264413511
1.1267778243
1.1271358155
1.1275065854
1.1278813357
1.1282512562
1.1286076781
1.1289422085
1.1292467404
1.1295137445
1.1297363543
1.1299085155
1.1300255072
1.1300840126
1.1303069852
1.2353192162
1.2342989962
1.2342094461
1.2340411917
1.2338085584
1.2335323960
1.2332392256
1.2329599500
1.2327289142
1.2325825932
1.2325581646
1.2326923115
1.2330198029
1.2335721809
1.2343761892
1.2354523774
1.2368133710
1.2384627662
1.2403930402
1.2425827571
1.2449978572
1.2475920707
1.2503080570
1.2530800928
1.2558376726
1.2585101472
1.2610307396
1.2633400811
1.2653888604
1.2671389458
1.2685628502
1.2696424640
1.2703669389
1.2707304012
1.2710741858
1.1243048980
1.1251050141
1.1251752301
1.1253152328
1.1255213892
1.1257884635
1.1261097697
1.1264772411
1.1268819091
1.1273140701
1.1277634379
1.1282194894
1.1286715284
1.1291088678
1.1295210060
1.1298976730
1.1302291743
1.1305065511
1.1307218104
1.1308685697
1.1309422659
1.1313072290
1.2326933212
1.2317470063
1.2316721948
1.2315329896
1.2313435623
1.2311244680
1.2309017498
1.2307056239
1.2305694665
1.2305284636
1.2306181851
1.2308734706
1.2313271077
1.2320085353
1.2329425735
1.2341481281
1.2356369205
1.2374117189
1.2394649714
1.2417758658
1.2443106305
1.2470243175
1.2498608184
1.2527551911
1.2556369372
1.2584342732
1.2610785538
1.2635075807
1.2656685549
1.2675195793
1.2690294716
1.2701767815
1.2709479653
1.2713352958
1.2715779154
1.1242533661
1.1249176863
1.1249972971
1.1251559905
1.1253900002
1.1256938598
1.1260605176
1.1264813691
1.1269467045
1.1274458439
1.1279672777
1.1284990160
1.1290286579
1.1295435935
1.1300312186
1.1304790147
1.1308749456
1.1312076968
1.1314670050
1.1316444619
1.1317339233
1.1322369619
1.2299535191
1.2290729266
1.2290139019
1.2289055886
1.2287618534
1.2286027907
1.2284538053
1.2283442959
1.2283065588
1.2283744059
1.2285816402
1.2289612052
1.2295438618
1.2303570205
1.2314231691
1.2327600444
1.2343786701
1.2362806720
1.2384588003
1.2408925318
1.2435501772
1.2463863413
1.2493468731
1.2523677455
1.2553785712
1.2583068028
1.2610817206
1.2636380951
1.2659192927
1.2678791619
1.2694822519
1.2707031963
1.2715252681
1.2719386112
1.2720670300
1.1242010301
1.1247336689
1.1248208494
1.1249946851
1.1252514964
1.1255858918
1.1259908200
1.1264575398
1.1269760050
1.1275349457
1.1281219742
1.1287239184
1.1293268835
1.1299164617
1.1304779778
1.1309965914
1.1314577314
1.1318474094
1.1321526580
1.1323625339
1.1324688089
1.1331042154
1.2271224406
1.2262975807
1.2262553651
1.2261796599
1.2260837675
1.2259870791
1.2259141614
1.2258934605
1.2259561172
1.2261345806
1.2264606888
1.2269654672
1.2276777652
1.2286231550
1.2298214466
1.2312887875
1.2330373785
1.2350675991
1.2373709661
1.2399279566
1.2427076893
1.2456675806
1.2487541299
1.2519042365
1.2550479146
1.2581116977
1.2610228178
1.2637128628
1.2661210428
1.2681965374
1.2698991463
1.2711990632
1.2720759682
1.2725174803
1.2725173962
1.1241507542
1.1245570944
1.1246501198
1.1248357410
1.1251105747
1.1254695956
1.1259061058
1.1264116180
1.1269761516
1.1275882385
1.1282349717
1.1289023043
1.1295750901
1.1302372878
1.1308722189
1.1314626678
1.1319913176
1.1324411144
1.1327958089
1.1330411903
1.1331661633
1.1339269705
1.2242213924
1.2234410486
1.2234168361
1.2233756263
1.2233297004
1.2232973643
1.2233020766
1.2233711788
1.2235346207
1.2238237168
1.2242678763
1.2248962887
1.2257357834
1.2268107732
1.2281395684
1.2297363852
1.2316115754
1.2337679429
1.2361949807
1.2388738454
1.2417750656
1.2448578498
1.2480702476
1.2513504835
1.2546289016
1.2578312163
1.2608825590
1.2637111286
1.2662516867
1.2684483349
1.2702556639
1.2716390080
1.2725740298
1.2730455378
1.2729012403
1.1241060206
1.1243924092
1.1244897269
1.1246841099
1.1249726622
1.1253509939
1.1258130897
1.1263510872
1.1269554618
1.1276149348
1.1283164496
1.1290454177
1.1297857273
1.1305199237
1.1312294493
1.1318946957
1.1324953839
1.1330109257
1.1334210271
1.1337071524
1.1338540923
1.1347325948
1.2212699862
1.2205223838
1.2205179433
1.2205138249
1.2205204874
1.2205545486
1.2206379540
1.2207966799
1.2210591903
1.2214553750
1.2220141846
1.2227628596
1.2237261465
1.2249259814
1.2263808618
1.2281033599
1.2301027829
1.2323810638
1.2349274769
1.2377242128
1.2407434237
1.2439462029
1.2472824331
1.2506916697
1.2541047363
1.2574465926
1.2606402148
1.2636102835
1.2662868488
1.2686085904
1.2705245003
1.2719946505
1.2729903419
1.2734933079
1.2731878613
1.1240708272
1.1242442993
1.1243445716
1.1245451090
1.1248436728
1.1252367497
1.1257193062
1.1262844510
1.1269234869
1.1276257077
1.1283782895
1.1291664723
1.1299735245
1.1307808770
1.1315683006
1.1323138488
1.1329940997
1.1335844124
1.1340594755
1.1343949145
1.1345694010
1.1355576745
1.2182841386
1.2175576539
1.2175759748
1.2176127928
1.2176753470
1.2177777963
1.2179402932
1.2181875186
1.2185467440
1.2190460734
1.2197146362
1.2205782155
1.2216598328
1.2229796681
1.2245543668
1.2263959518
1.2285128101
1.2309061066
1.2335652124
1.2364735786
1.2396051412
1.2429229688
1.2463788484
1.2499137922
1.2534591992
1.2569393197
1.2602749803
1.2633872582
1.2662013142
1.2686501487
1.2706768465
1.2722358873
1.2732939132
1.2738293583
1.2733450404
1.1240495387
1.1241175915
1.1242197103
1.1244242421
1.1247297515
1.1251338120
1.1256326392
1.1262206286
1.1268902622
1.1276317856
1.1284330102
1.1292794241
1.1301540958
1.1310377468
1.1319088111
1.1327432043
1.1335143124
1.1341929664
1.1347476899
1.1351461739
1.1353577640
1.1364481752
1.2152733220
1.2145572973
1.2146037070
1.2146878803
1.2148118603
1.2149863262
1.2152292862
1.2155642466
1.2160177308
1.2166172388
1.2173903136
1.2183619794
1.2195539179
1.2209846462
1.2226695358
1.2246211531
1.2268464296
1.2293452125
1.2321079470
1.2351194966
1.2383555544
1.2417812434
1.2453503298
1.2490053378
1.2526783181
1.2562928751
1.2597677222
1.2630203208
1.2659708580
1.2685465028
1.2706842260
1.2723326801
1.2734536269
1.2740220320
1.2733410690
1.1240469729
1.1240173757
1.1241204570
1.1243272616
1.1246372781
1.1250493450
1.1255611586
1.1261686858
1.1268659183
1.1276444281
1.1284930920
1.1293981151
1.1303428825
1.1313079303
1.1322708936
1.1332060135
1.1340837408
1.1348701625
1.1355265085
1.1360098529
1.1362752645
1.1374610270
1.2122388232
1.2115244155
1.2116092146
1.2117522471
1.2119476264
1.2122012984
1.2125287273
1.2129522679
1.2134978738
1.2141925783
1.2150631830
1.2161339991
1.2174262014
1.2189570551
1.2207405252
1.2227901787
1.2251124362
1.2277048824
1.2305600194
1.2336640706
1.2369945301
1.2405186651
1.2441921934
1.2479591790
1.2517523721
1.2554948014
1.2591031427
1.2624913048
1.2655745229
1.2682741048
1.2705208291
1.2722574058
1.2734405966
1.2740417998
1.2731474035
1.1240681484
1.1239487938
1.1240521540
1.1242599022
1.1245725472
1.1249903368
1.1255126433
1.1261372563
1.1268599846
1.1276740937
1.1285699657
1.1295350535
1.1305536595
1.1316068600
1.1326722687
1.1337233475
1.1347284518
1.1356493911
1.1364395280
1.1370424828
1.1373920492
1.1386679387
1.2091695503
1.2084505871
1.2085941400
1.2088162723
1.2090995341
1.2094440524
1.2098627185
1.2103771247
1.2110131755
1.2117980010
1.2127582241
1.2139182283
1.2152987186
1.2169171378
1.2187866655
1.2209201579
1.2233251712
1.2259975572
1.2289318297
1.2321155770
1.2355283315
1.2391393632
1.2429063157
1.2467747660
1.2506781891
1.2545391042
1.2582722662
1.2617881745
1.2649972503
1.2678150532
1.2701662433
1.2719876203
1.2732309484
1.2738640496
1.2727417559
1.1241181193
1.1239169280
1.1240200488
1.1242277369
1.1245415899
1.1249633757
1.1254942967
1.1261341776
1.1268809200
1.1277298368
1.1286732456
1.1297003971
1.1307972256
1.1319462400
1.1331262264
1.1343112980
1.1354695032
1.1365602814
1.1375303514
1.1383085740
1.1387997926
1.1401632755
1.2060325866
1.2053067235
1.2055495573
1.2058853594
1.2062825007
1.2067356078
1.2072560920
1.2078658795
1.2085918084
1.2094620148
1.2105039568
1.2117422275
1.2131985130
1.2148901822
1.2168314372
1.2190343239
1.2215056013
1.2242426418
1.2272409201
1.2304900591
1.2339712682
1.2376558099
1.2415031539
1.2454603225
1.2494614983
1.2534287600
1.2572750933
1.2609078127
1.2642327901
1.2671601079
1.2696085555
1.2715092244
1.2728090296
1.2734723119
1.2721115594
1.1242020780
1.1239269385
1.1240294310
1.1242363065
1.1245502941
1.1249747518
1.1255128255
1.1261665316
1.1269360920
1.1278191800
1.1288104811
1.1299015469
1.1310806895
1.1323329088
1.1336396723
1.1349779615
1.1363187081
1.1376233254
1.1388374365
1.1398802197
1.1406269872
1.1420803562
1.2027559173
1.2020266048
1.2024515956
1.2029590408
1.2035092258
1.2040963199
1.2047337795
1.2054462516
1.2062631235
1.2072147956
1.2083306694
1.2096368932
1.2111555342
1.2129062669
1.2149037858
1.2171599464
1.2196811482
1.2224661118
1.2255127466
1.2288118972
1.2323465905
1.2360899479
1.2400031152
1.2440344273
1.2481187346
1.2521777343
1.2561228286
1.2598584515
1.2632863194
1.2663114774
1.2688472809
1.2708195032
1.2721705217
1.2728613851
1.2712571581
1.1243250049
1.1239837504
1.1240853179
1.1242908079
1.1246040889
1.1250301370
1.1255740957
1.1262402835
1.1270313804
1.1279476481
1.1289865301
1.1301423683
1.1314064326
1.1327672833
1.1342106899
1.1357193050
1.1372716983
1.1388396137
1.1403817385
1.1418309868
1.1430677635
1.1446224338
1.1991952709
1.1984757734
1.1992583735
1.2000332599
1.2007925253
1.2015473032
1.2023213901
1.2031464587
1.2040569894
1.2050872685
1.2062699620
1.2076338297
1.2092029797
1.2109979173
1.2130365097
1.2153298398
1.2178839587
1.2207010045
1.2237800869
1.2271137202
1.2306865927
1.2344735051
1.2384370574
1.2425267364
1.2466779745
1.2508121403
1.2548392648
1.2586612817
1.2621762718
1.2652848504
1.2678955701
1.2699294738
1.2713248859
1.2720399291
1.2701941537
1.1244914942
1.1240919169
1.1241923296
1.1243959821
1.1247078601
1.1251345299
1.1256831193
1.1263602893
1.1271712575
1.1281189653
1.1292037362
1.1304233946
1.1317720181
1.1332425544
1.1348264367
1.1365144399
1.1382980680
1.1401713056
1.1421337056
1.1441978184
1.1464050160
1.1480882922
1.1950656272
1.1943881242
1.1959114005
1.1971099679
1.1981528514
1.1991150297
1.2000475184
1.2009960322
1.2020035609
1.2031102998
1.2043533887
1.2057652750
1.2073731992
1.2091997972
1.2112645108
1.2135795228
1.2161514270
1.2189854223
1.2220820913
1.2254355025
1.2290318644
1.2328473777
1.2368458647
1.2409777389
1.2451788945
1.2493704075
1.2534611751
1.2573510742
1.2609351856
1.2641104611
1.2667814679
1.2688653008
1.2702968893
1.2710319230
1.2689546328
1.1247058457
1.1242557316
1.1243548105
1.1245562638
1.1248661335
1.1252925091
1.1258444238
1.1265307872
1.1273595506
1.1283359334
1.1294631732
1.1307417257
1.1321697346
1.1337440080
1.1354607453
1.1373165499
1.1393096405
1.1414398935
1.1437065861
1.1461006643
1.1485825712
1.1502689281
1.1648785021
1.1696413118
1.1930711079
1.1923612618
1.1933241694
1.1945307000
1.1957323252
1.1968704341
1.1979568179
1.1990294835
1.2001334721
1.2013132848
1.2026105044
1.2040616863
1.2056978381
1.2075447173
1.2096227557
1.2119459172
1.2145227827
1.2173607863
1.2204622330
1.2238226101
1.2274293364
1.2312597807
1.2352786727
1.2394370859
1.2436712156
1.2479018703
1.2520370608
1.2559751053
1.2596088175
1.2628323904
1.2655473897
1.2676679205
1.2691263370
1.2698764938
1.2675863669
1.1249717127
1.1244788894
1.1245765020
1.1247754712
1.1250828051
1.1255080286
1.1260619335
1.1267554334
1.1275984842
1.1285990611
1.1297629607
1.1310936286
1.1325926361
1.1342607734
1.1360993826
1.1381121791
1.1403081376
1.1427051710
1.1453361013
1.1482605948
1.1515906343
1.1553218580
1.1636360965
1.1682787823
1.1830411608
1.1868703389
1.1895808199
1.1916455980
1.1933262762
1.1947632969
1.1960510094
1.1972649942
1.1984695837
1.1997205284
1.2010666385
1.2025498382
1.2042054386
1.2060626822
1.2081438775
1.2104651521
1.2130370390
1.2158692392
1.2189656477
1.2223228642
1.2259293077
1.2297631678
1.2337897333
1.2379604271
1.2422115574
1.2464636659
1.2506241301
1.2545902452
1.2582533615
1.2615059268
1.2642476223
1.2663906673
1.2678657942
1.2686257149
1.2661499135
1.1252919698
1.1247643711
1.1248604296
1.1250567096
1.1253610608
1.1257841639
1.1263382551
1.1270360191
1.1278893392
1.1289083962
1.1301013346
1.1314742791
1.1330316726
1.1347776694
1.1367176312
1.1388602060
1.1412208140
1.1438258409
1.1467189680
1.1499720082
1.1537028781
1.1580388677
1.1643781274
1.1699545246
1.1788080646
1.1833599547
1.1866794715
1.1892186667
1.1912459885
1.1929330303
1.1944010310
1.1957446495
1.1970413034
1.1983559373
1.1997440163
1.2012523380
1.2029202247
1.2047799247
1.2068575213
1.2091703458
1.2117308894
1.2145511696
1.2176362089
1.2209835138
1.2245821275
1.2284106966
1.2324346819
1.2366055250
1.2408594206
1.2451166265
1.2492841392
1.2532587804
1.2569312893
1.2601934476
1.2629442622
1.2650952715
1.2665766364
1.2673406333
1.2647140426
1.1256688642
1.1251145824
1.1252090323
1.1254024130
1.1257032361
1.1261230869
1.1266753849
1.1273741782
1.1282329623
1.1292636411
1.1304763235
1.1318792190
1.1334790092
1.1352822838
1.1372969287
1.1395340908
1.1420113354
1.1447557844
1.1478080015
1.1512271996
1.1550962222
1.1595044311
1.1648920678
1.1702450372
1.1765871627
1.1810656544
1.1845611061
1.1873335072
1.1895772820
1.1914428992
1.1930500790
1.1944981374
1.1958703778
1.1972372423
1.1986589298
1.2001860777
1.2018610974
1.2037193465
1.2057885950
1.2080893246
1.2106368794
1.2134428374
1.2165139139
1.2198481257
1.2234347685
1.2272524367
1.2312664198
1.2354278124
1.2396724547
1.2439202945
1.2480781868
1.2520430306
1.2557058353
1.2589588139
1.2617015527
1.2638461676
1.2653233482
1.2660857876
1.2633494804
1.1261038046
1.1255311224
1.1256239051
1.1258141675
1.1261108740
1.1265262633
1.1270745651
1.1277708297
1.1286296795
1.1296642828
1.1308861365
1.1323049269
1.1339288578
1.1357660239
1.1378256077
1.1401194998
1.1426648572
1.1454859580
1.1486157146
1.1520965489
1.1559775649
1.1602989956
1.1651696539
1.1701421690
1.1753457746
1.1796047834
1.1831090969
1.1859788933
1.1883419680
1.1903196018
1.1920208609
1.1935428403
1.1949700917
1.1963754866
1.1978219048
1.1993624946
1.2010418172
1.2028969554
1.2049577784
1.2072469935
1.2097817791
1.2125749297
1.2156326873
1.2189536576
1.2225271276
1.2263312948
1.2303306353
1.2344755516
1.2387012895
1.2429274524
1.2470609807
1.2509994020
1.2546348541
1.2578610980
1.2605795144
1.2627040600
1.2641670557
1.2649224220
1.2621220698
1.1265973163
1.1260147512
1.1261058121
1.1262927372
1.1265847308
1.1269943760
1.1275363557
1.1282262821
1.1290794349
1.1301097144
1.1313294212
1.1327490784
1.1343777061
1.1362241261
1.1382979561
1.1406109104
1.1431788785
1.1460229353
1.1491695416
1.1526493637
1.1564913856
1.1607075633
1.1653030925
1.1700069498
1.1747025230
1.1787812106
1.1822397249
1.1851301753
1.1875410060
1.1895724277
1.1913234408
1.1928871173
1.1943469848
1.1957761902
1.1972385184
1.1987881461
1.2004706952
1.2023242808
1.2043798398
1.2066617233
1.2091882079
1.2119721439