<VTKFile type="UnstructuredGrid" version="0.1">
	<UnstructuredGrid>
		<Piece NumberOfPoints="13548" NumberOfCells="3387">
			<CellData>
				<DataArray type="Int32" Name="ghost" NumberOfComponents="1" Format="ascii">
1
1
1
1
1
1
1
1
1
1
1
1
1
1
1
1
1
1
1
1
1
1
1
1
1
1
1
1
1
1
1
1
1
1
1
1
1
1
1
1
1
1
1
1
1
1
1
1
1
1
1
1
1
1
1
1
1
1
0
0
0
0
0
0
0
0
0
0
0
0
0
0
0
0
0
0
0
0
1
1
0
0
0
0
0
0
0
0
0
0
0
0
0
0
0
0
0
0
0
0
0
0
0
0
0
0
0
0
0
0
0
0
0
1
1
0
0
0
0
0
0
0
0
0
0
0
0
0
0
0
0
0
0
0
0
1
1
0
0
0
0
0
0
0
0
0
0
0
0
0
0
0
0
0
0
0
0
0
0
0
0
0
0
0
0
0
0
0
0
0
1
1
0
0
0
0
0
0
0
0
0
0
0
0
0
0
0
0
0
0
0
0
1
1
0
0
0
0
0
0
0
0
0
0
0
0
0
0
0
0
0
0
0
0
0
0
0
0
0
0
0
0
0
0
0
0
0
1
1
0
0
0
0
0
0
0
0
0
0
0
0
0
0
0
0
0
0
0
0
1
1
0
0
0
0
0
0
0
0
0
0
0
0
0
0
0
0
0
0
0
0
0
0
0
0
0
0
0
0
0
0
0
0
0
1
1
0
0
0
0
0
0
0
0
0
0
0
0
0
0
0
0
0
0
0
0
1
1
0
0
0
0
0
0
0
0
0
0
0
0
0
0
0
0
0
0
0
0
0
0
0
0
0
0
0
0
0
0
0
0
0
1
1
0
0
0
0
0
0
0
0
0
0
0
0
0
0
0
0
0
0
0
0
1
1
0
0
0
0
0
0
0
0
0
0
0
0
0
0
0
0
0
0
0
0
0
0
0
0
0
0
0
0
0
0
0
0
0
1
1
0
0
0
0
0
0
0
0
0
0
0
0
0
0
0
0
0
0
0
0
1
1
0
0
0
0
0
0
0
0
0
0
0
0
0
0
0
0
0
0
0
0
0
0
0
0
0
0
0
0
0
0
0
0
0
1
1
0
0
0
0
0
0
0
0
0
0
0
0
0
0
0
0
0
0
0
0
1
1
0
0
0
0
0
0
0
0
0
0
0
0
0
0
0
0
0
0
0
0
0
0
0
0
0
0
0
0
0
0
0
0
0
1
1
0
0
0
0
0
0
0
0
0
0
0
0
0
0
0
0
0
0
0
0
1
1
0
0
0
0
0
0
0
0
0
0
0
0
0
0
0
0
0
0
0
0
0
0
0
0
0
0
0
0
0
0
0
0
0
1
1
0
0
0
0
0
0
0
0
0
0
0
0
0
0
0
0
0
0
0
0
1
1
0
0
0
0
0
0
0
0
0
0
0
0
0
0
0
0
0
0
0
0
0
0
0
0
0
0
0
0
0
0
0
0
0
1
1
0
0
0
0
0
0
0
0
0
0
0
0
0
0
0
0
0
0
0
0
1
1
0
0
0
0
0
0
0
0
0
0
0
0
0
0
0
0
0
0
0
0
0
0
0
0
0
0
0
0
0
0
0
0
0
1
1
0
0
0
0
0
0
0
0
0
0
0
0
0
0
0
0
0
0
0
0
1
1
0
0
0
0
0
0
0
0
0
0
0
0
0
0
0
0
0
0
0
0
0
0
0
0
0
0
0
0
0
0
0
0
0
1
1
0
0
0
0
0
0
0
0
0
0
0
0
0
0
0
0
0
0
0
0
1
1
0
0
0
0
0
0
0
0
0
0
0
0
0
0
0
0
0
0
0
0
0
0
0
0
0
0
0
0
0
0
0
0
0
1
1
0
0
0
0
0
0
0
0
0
0
0
0
0
0
0
0
0
0
0
0
1
1
0
0
0
0
0
0
0
0
0
0
0
0
0
0
0
0
0
0
0
0
0
0
0
0
0
0
0
0
0
0
0
0
0
1
1
0
0
0
0
0
0
0
0
0
0
0
0
0
0
0
0
0
0
0
0
1
1
0
0
0
0
0
0
0
0
0
0
0
0
0
0
0
0
0
0
0
0
0
0
0
0
0
0
0
0
0
0
0
0
0
1
1
0
0
0
0
0
0
0
0
0
0
0
0
0
0
0
0
0
0
0
0
1
1
0
0
0
0
0
0
0
0
0
0
0
0
0
0
0
0
0
0
0
0
0
0
0
0
0
0
0
0
0
0
0
0
0
1
1
0
0
0
0
0
0
0
0
0
0
0
0
0
0
0
0
0
0
0
0
1
1
0
0
0
0
0
0
0
0
0
0
0
0
0
0
0
0
0
0
0
0
0
0
0
0
0
0
0
0
0
0
0
0
0
1
1
0
0
0
0
0
0
0
0
0
0
0
0
0
0
0
0
0
0
0
0
1
1
0
0
0
0
0
0
0
0
0
0
0
0
0
0
0
0
0
0
0
0
0
0
0
0
0
0
0
0
0
0
0
0
0
1
1
0
0
0
0
0
0
0
0
0
0
0
0
0
0
0
0
0
0
0
0
1
1
0
0
0
0
0
0
0
0
0
0
0
0
0
0
0
0
0
0
0
0
0
0
0
0
0
0
0
0
0
0
0
0
0
1
1
0
0
0
0
0
0
0
0
0
0
0
0
0
0
0
0
0
0
0
0
1
1
0
0
0
0
0
0
0
0
0
0
0
0
0
0
0
0
0
0
0
0
0
0
0
0
0
0
0
0
0
0
0
0
0
1
1
0
0
0
0
0
0
0
0
0
0
0
0
0
0
0
0
0
0
0
0
1
1
0
0
0
0
0
0
0
0
0
0
0
0
0
0
0
0
0
0
0
0
0
0
0
0
0
0
0
0
0
0
0
0
0
1
1
0
0
0
0
0
0
0
0
0
0
0
0
0
0
0
0
0
0
0
0
1
1
0
0
0
0
0
0
0
0
0
0
0
0
0
0
0
0
0
0
0
0
0
0
0
0
0
0
0
0
0
0
0
0
0
1
1
0
0
0
0
0
0
0
0
0
0
0
0
0
0
0
0
0
0
0
0
1
1
0
0
0
0
0
0
0
0
0
0
0
0
0
0
0
0
0
0
0
0
0
0
0
0
0
0
0
0
0
0
0
0
0
1
1
0
0
0
0
0
0
0
0
0
0
0
0
0
0
0
0
0
0
0
0
1
1
0
0
0
0
0
0
0
0
0
0
0
0
0
0
0
0
0
0
0
0
0
0
0
0
0
0
0
0
0
0
0
0
0
1
1
0
0
0
0
0
0
0
0
0
0
0
0
0
0
0
0
0
0
0
0
0
1
1
0
0
0
0
0
0
0
0
0
0
0
0
0
0
0
0
0
0
0
0
0
0
0
0
0
0
0
0
0
0
0
0
0
0
1
1
0
0
0
0
0
0
0
0
0
0
0
0
0
0
0
0
0
0
0
0
0
0
0
0
0
0
0
0
0
0
0
0
0
0
0
0
0
0
0
0
0
0
0
0
0
0
0
0
0
0
0
0
0
0
0
0
0
1
1
0
0
0
0
0
0
0
0
0
0
0
0
0
0
0
0
0
0
0
0
0
0
0
0
0
0
0
0
0
0
0
0
0
0
0
0
0
0
0
0
0
0
0
0
0
0
0
0
0
0
0
0
0
0
0
0
0
1
1
0
0
0
0
0
0
0
0
0
0
0
0
0
0
0
0
0
0
0
0
0
0
0
0
0
0
0
0
0
0
0
0
0
0
0
0
0
0
0
0
0
0
0
0
0
0
0
0
0
0
0
0
0
0
0
0
0
1
1
0
0
0
0
0
0
0
0
0
0
0
0
0
0
0
0
0
0
0
0
0
0
0
0
0
0
0
0
0
0
0
0
0
0
0
0
0
0
0
0
0
0
0
0
0
0
0
0
0
0
0
0
0
0
0
0
0
1
1
0
0
0
0
0
0
0
0
0
0
0
0
0
0
0
0
0
0
0
0
0
0
0
0
0
0
0
0
0
0
0
0
0
0
0
0
0
0
0
0
0
0
0
0
0
0
0
0
0
0
0
0
0
0
0
0
0
1
1
0
0
0
0
0
0
0
0
0
0
0
0
0
0
0
0
0
0
0
0
0
0
0
0
0
0
0
0
0
0
0
0
0
0
0
0
0
0
0
0
0
0
0
0
0
0
0
0
0
0
0
0
0
0
0
0
0
1
1
0
0
0
0
0
0
0
0
0
0
0
0
0
0
0
0
0
0
0
0
0
0
0
0
0
0
0
0
0
0
0
0
0
0
0
0
0
0
0
0
0
0
0
0
0
0
0
0
0
0
0
0
0
0
0
0
0
1
1
0
0
0
0
0
0
0
0
0
0
0
0
0
0
0
0
0
0
0
0
0
0
0
0
0
0
0
0
0
0
0
0
0
0
0
0
0
0
0
0
0
0
0
0
0
0
0
0
0
0
0
0
0
0
0
0
0
1
1
0
0
0
0
0
0
0
0
0
0
0
0
0
0
0
0
0
0
0
0
0
0
0
0
0
0
0
0
0
0
0
0
0
0
0
0
0
0
0
0
0
0
0
0
0
0
0
0
0
0
0
0
0
0
0
0
0
1
1
0
0
0
0
0
0
0
0
0
0
0
0
0
0
0
0
0
0
0
0
0
0
0
0
0
0
0
0
0
0
0
0
0
0
0
0
0
0
0
0
0
0
0
0
0
0
0
0
0
0
0
0
0
0
0
0
0
1
1
0
0
0
0
0
0
0
0
0
0
0
0
0
0
0
0
0
0
0
0
0
1
1
0
0
0
0
0
0
0
0
0
0
0
0
0
0
0
0
0
0
0
0
0
0
0
0
0
0
0
0
0
0
0
0
0
0
1
1
0
0
0
0
0
0
0
0
0
0
0
0
0
0
0
0
0
0
0
0
1
1
0
0
0
0
0
0
0
0
0
0
0
0
0
0
0
0
0
0
0
0
0
0
0
0
0
0
0
0
0
0
0
0
0
1
1
0
0
0
0
0
0
0
0
0
0
0
0
0
0
0
0
0
0
0
0
1
1
0
0
0
0
0
0
0
0
0
0
0
0
0
0
0
0
0
0
0
0
0
0
0
0
0
0
0
0
0
0
0
0
0
1
1
0
0
0
0
0
0
0
0
0
0
0
0
0
0
0
0
0
0
0
0
1
1
0
0
0
0
0
0
0
0
0
0
0
0
0
0
0
0
0
0
0
0
0
0
0
0
0
0
0
0
0
0
0
0
0
1
1
0
0
0
0
0
0
0
0
0
0
0
0
0
0
0
0
0
0
0
0
1
1
0
0
0
0
0
0
0
0
0
0
0
0
0
0
0
0
0
0
0
0
0
0
0
0
0
0
0
0
0
0
0
0
0
1
1
0
0
0
0
0
0
0
0
0
0
0
0
0
0
0
0
0
0
0
0
1
1
0
0
0
0
0
0
0
0
0
0
0
0
0
0
0
0
0
0
0
0
0
0
0
0
0
0
0
0
0
0
0
0
0
1
1
0
0
0
0
0
0
0
0
0
0
0
0
0
0
0
0
0
0
0
0
1
1
0
0
0
0
0
0
0
0
0
0
0
0
0
0
0
0
0
0
0
0
0
0
0
0
0
0
0
0
0
0
0
0
0
1
1
0
0
0
0
0
0
0
0
0
0
0
0
0
0
0
0
0
0
0
0
1
1
0
0
0
0
0
0
0
0
0
0
0
0
0
0
0
0
0
0
0
0
0
0
0
0
0
0
0
0
0
0
0
0
0
1
1
0
0
0
0
0
0
0
0
0
0
0
0
0
0
0
0
0
0
0
0
1
1
0
0
0
0
0
0
0
0
0
0
0
0
0
0
0
0
0
0
0
0
0
0
0
0
0
0
0
0
0
0
0
0
0
1
1
0
0
0
0
0
0
0
0
0
0
0
0
0
0
0
0
0
0
0
0
1
1
0
0
0
0
0
0
0
0
0
0
0
0
0
0
0
0
0
0
0
0
0
0
0
0
0
0
0
0
0
0
0
0
0
1
1
0
0
0
0
0
0
0
0
0
0
0
0
0
0
0
0
0
0
0
0
1
1
0
0
0
0
0
0
0
0
0
0
0
0
0
0
0
0
0
0
0
0
0
0
0
0
0
0
0
0
0
0
0
0
0
1
1
0
0
0
0
0
0
0
0
0
0
0
0
0
0
0
0
0
0
0
0
1
1
0
0
0
0
0
0
0
0
0
0
0
0
0
0
0
0
0
0
0
0
0
0
0
0
0
0
0
0
0
0
0
0
0
1
1
0
0
0
0
0
0
0
0
0
0
0
0
0
0
0
0
0
0
0
0
1
1
0
0
0
0
0
0
0
0
0
0
0
0
0
0
0
0
0
0
0
0
0
0
0
0
0
0
0
0
0
0
0
0
0
1
1
0
0
0
0
0
0
0
0
0
0
0
0
0
0
0
0
0
0
0
0
1
1
0
0
0
0
0
0
0
0
0
0
0
0
0
0
0
0
0
0
0
0
0
0
0
0
0
0
0
0
0
0
0
0
0
1
1
0
0
0
0
0
0
0
0
0
0
0
0
0
0
0
0
0
0
0
0
1
1
0
0
0
0
0
0
0
0
0
0
0
0
0
0
0
0
0
0
0
0
0
0
0
0
0
0
0
0
0
0
0
0
0
1
1
0
0
0
0
0
0
0
0
0
0
0
0
0
0
0
0
0
0
0
0
1
1
0
0
0
0
0
0
0
0
0
0
0
0
0
0
0
0
0
0
0
0
0
0
0
0
0
0
0
0
0
0
0
0
0
1
1
0
0
0
0
0
0
0
0
0
0
0
0
0
0
0
0
0
0
0
0
1
1
0
0
0
0
0
0
0
0
0
0
0
0
0
0
0
0
0
0
0
0
0
0
0
0
0
0
0
0
0
0
0
0
0
1
1
0
0
0
0
0
0
0
0
0
0
0
0
0
0
0
0
0
0
0
0
1
1
0
0
0
0
0
0
0
0
0
0
0
0
0
0
0
0
0
0
0
0
0
0
0
0
0
0
0
0
0
0
0
0
0
1
1
0
0
0
0
0
0
0
0
0
0
0
0
0
0
0
0
0
0
0
0
1
1
0
0
0
0
0
0
0
0
0
0
0
0
0
0
0
0
0
0
0
0
0
0
0
0
0
0
0
0
0
0
0
0
0
1
1
0
0
0
0
0
0
0
0
0
0
0
0
0
0
0
0
0
0
0
0
1
1
0
0
0
0
0
0
0
0
0
0
0
0
0
0
0
0
0
0
0
0
0
0
0
0
0
0
0
0
0
0
0
0
0
1
1
0
0
0
0
0
0
0
0
0
0
0
0
0
0
0
0
0
0
0
0
1
1
0
0
0
0
0
0
0
0
0
0
0
0
0
0
0
0
0
0
0
0
0
0
0
0
0
0
0
0
0
0
0
0
0
1
1
0
0
0
0
0
0
0
0
0
0
0
0
0
0
0
0
0
0
0
0
1
1
0
0
0
0
0
0
0
0
0
0
0
0
0
0
0
0
0
0
0
0
0
0
0
0
0
0
0
0
0
0
0
0
0
1
1
1
1
1
1
1
1
1
1
1
1
1
1
1
1
1
1
1
1
1
1
1
1
1
1
1
1
1
1
1
1
1
1
1
1
1
1
1
1
1
1
1
1
1
1
1
1
1
1
1
1
1
1
1
1
1
1
				</DataArray>
				<DataArray type="Float64" Name="h" NumberOfComponents="1" Format="ascii">
1.2974889486
1.2948474788
1.2942987833
1.2932238334
1.2916717061
1.2897114508
1.2874277730
1.2849158915
1.2822751090
1.2796030953
1.2769902197
1.2745144246
1.2722381240
1.2702061950
1.2684458477
1.2669685065
1.2657723414
1.2648462416
1.2641742695
1.2637394115
1.2635276920
1.2635276920
1.1048092244
1.1039458832
1.1041198584
1.1044699099
1.1050069964
1.1057497093
1.1067268388
1.1079808001
1.1095703393
1.1115726291
1.1140840637
1.1172173575
1.1210944025
1.1258340755
1.1315337334
1.1382457171
1.1459525494
1.1545464618
1.1638197232
1.1734735387
1.1831488999
1.1924728513
1.2011110867
1.2088131306
1.2154371822
1.2209460147
1.2253886416
1.2288775490
1.2315513106
1.2335497073
1.2349975469
1.2359963510
1.2366214787
1.2369219424
1.2369219424
1.2948474788
1.2921394238
1.2916428231
1.2906689728
1.2892624092
1.2874860621
1.2854174617
1.2831441506
1.2807577319
1.2783485293
1.2760001778
1.2737846021
1.2717588688
1.2699630775
1.2684201410
1.2671375707
1.2661099713
1.2653230573
1.2647581608
1.2643960794
1.2642213040
1.2635276920
1.1039458832
1.1030690746
1.1032539108
1.1036273334
1.1042033678
1.1050052323
1.1060678425
1.1074410136
1.1091917203
1.1114053626
1.1141852514
1.1176479412
1.1219138362
1.1270925429
1.1332623665
1.1404459473
1.1485868203
1.1575334339
1.1670368313
1.1767685082
1.1863591101
1.1954482160
1.2037344808
1.2110150711
1.2171925623
1.2222670917
1.2263224438
1.2294854199
1.2318978705
1.2336957968
1.2349965720
1.2358936459
1.2364552065
1.2367251608
1.2369219424
1.2948589159
1.2921718348
1.2916816117
1.2907201543
1.2893313171
1.2875770746
1.2855337889
1.2832876948
1.2809290331
1.2785467978
1.2762234225
1.2740298524
1.2720224678
1.2702410232
1.2687084415
1.2674325726
1.2664086326
1.2656231314
1.2650582679
1.2646956536
1.2645204158
1.2638556978
1.1036573898
1.1027810282
1.1029700950
1.1033522141
1.1039417106
1.1047621863
1.1058489545
1.1072521032
1.1090385535
1.1112930384
1.1141172442
1.1176248078
1.1219316935
1.1271416137
1.1333260837
1.1405012359
1.1486061333
1.1574886991
1.1669047443
1.1765358244
1.1860261342
1.1950291310
1.2032542858
1.2105029160
1.2166808437
1.2217796613
1.2258768245
1.2290905497
1.2315557565
1.2334029665
1.2347460309
1.2356760604
1.2362600843
1.2365413968
1.2367046031
1.2948760926
1.2922296964
1.2917520438
1.2908150139
1.2894611204
1.2877504580
1.2857570882
1.2835646701
1.2812607616
1.2789317403
1.2766576785
1.2745075961
1.2725365246
1.2707835389
1.2692715780
1.2680091520
1.2669926693
1.2662101908
1.2656456015
1.2652820943
1.2651060317
1.2644987661
1.1030847433
1.1022097207
1.1024073295
1.1028069182
1.1034233981
1.1042811188
1.1054161429
1.1068790482
1.1087365952
1.1110721466
1.1139841494
1.1175804916
1.1219684570
1.1272403016
1.1334544065
1.1406143604
1.1486506075
1.1574099717
1.1666572061
1.1760928577
1.1853868397
1.1942192032
1.2023205351
1.2095023721
1.2156717859
1.2208130721
1.2249867953
1.2282961084
1.2308619629
1.2328043566
1.2342295237
1.2352239699
1.2358519874
1.2361556024
1.2362501896
1.2948940330
1.2923055836
1.2918463415
1.2909450856
1.2896423684
1.2879955319
1.2860752676
1.2839614607
1.2817377418
1.2794866650
1.2772848573
1.2751985359
1.2732807718
1.2715696553
1.2700881531
1.2688457366
1.2678405426
1.2670628718
1.2664990360
1.2661344956
1.2659573794
1.2654359644
1.1022357355
1.1013638868
1.1015743777
1.1020004260
1.1026573646
1.1035707257
1.1047775719
1.1063290640
1.1082915764
1.1107463236
1.1137869095
1.1175127995
1.1220187211
1.1273805268
1.1336379601
1.1407769529
1.1487158980
1.1573000644
1.1663065154
1.1754619584
1.1844718768
1.1930535029
1.2009676507
1.2080428154
1.2141849511
1.2193755911
1.2236490670
1.2270886720
1.2297951131
1.2318723199
1.2334151527
1.2345025241
1.2351943862
1.2355304295
1.2355185016
1.2949045245
1.2923876710
1.2919521877
1.2910970911
1.2898604031
1.2882959126
1.2864699577
1.2844575525
1.2823372648
1.2801867298
1.2780781555
1.2760741743
1.2742253590
1.2725685539
1.2711267719
1.2699107171
1.2689207236
1.2681499239
1.2675876817
1.2672222948
1.2670440933
1.2666364827
1.1011203248
1.1002548264
1.1004826674
1.1009443732
1.1016554519
1.1026426433
1.1039442398
1.1056119241
1.1077112971
1.1103205394
1.1135268262
1.1174187466
1.1220751001
1.1275512261
1.1338638578
1.1409773905
1.1487956920
1.1571622107
1.1658687006
1.1746729686
1.1833229165
1.1915806657
1.1992445615
1.2061657089
1.2122546610
1.2174801528
1.2218622845
1.2254519423
1.2283261958
1.2305681710
1.2322569297
1.2334609417
1.2342334668
1.2346106463
1.2344507997
1.2948954841
1.2924591916
1.2920522137
1.2912524839
1.2900949870
1.2886292448
1.2869163695
1.2850255327
1.2830292413
1.2809992581
1.2790025329
1.2770974498
1.2753316358
1.2737404790
1.2723470639
1.2711635548
1.2701928636
1.2694314201
1.2688721177
1.2685065161
1.2683274618
1.2680606713
1.0997490794
1.0988947811
1.0991445827
1.0996509045
1.1004305316
1.1015098510
1.1029285755
1.1047387504
1.1070046474
1.1098004054
1.1132052122
1.1172946002
1.1221286754
1.1277391408
1.1341166549
1.1412016018
1.1488819393
1.1569992816
1.1653614374
1.1737598868
1.1819885244
1.1898587679
1.1972114677
1.2039253098
1.2099198649
1.2151554832
1.2196297451
1.2233696711
1.2264224278
1.2288452579
1.2306978703
1.2320347571
1.2329001335
1.2333249386
1.2329725545
1.2948507048
1.2924983578
1.2921239519
1.2913874654
1.2903204110
1.2889674334
1.2873836747
1.2856316424
1.2837769455
1.2818846835
1.2800158639
1.2782240907
1.2765536950
1.2750384508
1.2737015362
1.2725567455
1.2716098370
1.2708608514
1.2703065173
1.2699419101
1.2697625721
1.2696619835
1.0981313466
1.0972949858
1.0975714374
1.0981319721
1.0989942449
1.1001844517
1.1017424789
1.1037202701
1.1061800935
1.1091909440
1.1128225129
1.1171354091
1.1221689474
1.1279291241
1.1343788187
1.1414333610
1.1489645149
1.1568123349
1.1648011410
1.1727564716
1.1805186657
1.1879495135
1.1949346858
1.2013841568
1.2072310666
1.2124316987
1.2169655582
1.2208331270
1.2240523750
1.2266538093
1.2286739825
1.2301498254
1.2311137323
1.2315894793
1.2309984265
1.2947492135
1.2924779802
1.2921394880
1.2914727016
1.2905053091
1.2892765846
1.2878351030
1.2862360542
1.2845374912
1.2827972383
1.2810698403
1.2794037267
1.2778396781
1.2764097392
1.2751371876
1.2740375400
1.2731195379
1.2723869735
1.2718405227
1.2714788453
1.2713002083
1.2713886927
1.0962728925
1.0954629075
1.0957711606
1.0963959615
1.0973554514
1.0986754665
1.1003951490
1.1025650031
1.1052442396
1.1084955564
1.1123777370
1.1169349453
1.1221842907
1.1281050303
1.1346318540
1.1416553179
1.1490317108
1.1566000977
1.1642010639
1.1716928189
1.1789599773
1.1859127973
1.1924813886
1.1986089553
1.2042463513
1.2093511265
1.2138897965
1.2178400211
1.2211921923
1.2239490557
1.2261225853
1.2277299383
1.2287891341
1.2293148793
1.2284408128
1.2945654743
1.2923660134
1.2920660319
1.2914739456
1.2906133571
1.2895178064
1.2882288654
1.2867939361
1.2852630496
1.2836863294
1.2821115053
1.2805815702
1.2791335850
1.2777977791
1.2765975024
1.2755499920
1.2746669608
1.2739559045
1.2734213534
1.2730654214
1.2728889682
1.2731859120
1.0941727675
1.0933993221
1.0937452229
1.0944453362
1.0955170460
1.0969870240
1.0988910636
1.1012772520
1.1042000940
1.1077146047
1.1118673855
1.1166850111
1.1221616371
1.1282497010
1.1348564304
1.1418490044
1.1490697842
1.1563576922
1.1635688841
1.1705916337
1.1773507740
1.1838007960
1.1899134511
1.1956650807
1.2010272216
1.2059640280
1.2104353186
1.2144016561
1.2178299070
1.2206970346
1.2229904926
1.2247065225
1.2258471684
1.2264165460
1.2252218508
1.2942704163
1.2921270271
1.2918674198
1.2913535999
1.2906049225
1.2896489709
1.2885200490
1.2872574935
1.2859030445
1.2844988861
1.2830857426
1.2817010286
1.2803779869
1.2791449576
1.2780252871
1.2770378240
1.2761970830
1.2755140213
1.2749967161
1.2746503956
1.2744782027
1.2749985756
1.0918200412
1.0910949434
1.0914853705
1.0922732711
1.0934748167
1.0951151844
1.0972276585
1.0998548779
1.1030448940
1.1068434344
1.1112837226
1.1163739867
1.1220853002
1.1283440193
1.1350315473
1.1419939320
1.1490617595
1.1560748910
1.1629041616
1.1694646669
1.1757163337
1.1816521551
1.1872808773
1.1926099179
1.1976327817
1.2023246246
1.2066449867
1.2105442705
1.2139718909
1.2168833655
1.2192440141
1.2210299085
1.2222268217
1.2228276064
1.2212877070
1.2938327229
1.2917239853
1.2915059132
1.2910725526
1.2904389538
1.2896266662
1.2886626391
1.2875780601
1.2864063040
1.2851815565
1.2839374938
1.2827059176
1.2815162079
1.2803947418
1.2793647299
1.2784464169
1.2776567963
1.2770098544
1.2765166921
1.2761850816
1.2760199306
1.2767735182
1.0891893714
1.0885260698
1.0889693580
1.0898608024
1.0912126894
1.0930464019
1.0953924080
1.0982872998
1.1017684056
1.1058709154
1.1106135884
1.1159859197
1.1219363227
1.1283664614
1.1351342136
1.1420672976
1.1489870516
1.1557355357
1.1621973992
1.1683112136
1.1740665869
1.1794886659
1.1846174430
1.1894877726
1.1941146022
1.1984868960
1.2025694518
1.2063095886
1.2096465112
1.2125205543
1.2148795479
1.2166823108
1.2178998306
1.2185142437
1.2166241722
1.2932212516
1.2911211551
1.2909451116
1.2905930959
1.2900759030
1.2894091202
1.2886124307
1.2877089802
1.2867238904
1.2856834550
1.2846143944
1.2835429531
1.2824946489
1.2814938187
1.2805633580
1.2797246034
1.2789965774
1.2783956922
1.2779353312
1.2776249785
1.2774705098
1.2784613970
1.0862368145
1.0856506605
1.0861572490
1.0871718409
1.0887004280
1.0907564254
1.0933623513
1.0965539143
1.1003516253
1.1047781844
1.1098372201
1.1154994163
1.1216914277
1.1282921028
1.1351385047
1.1420431115
1.1488207043
1.1553169259
1.1614295677
1.1671176465
1.1723953951
1.1773139303
1.1819384303
1.1863265830
1.1905126957
1.1945005251
1.1982640802
1.2017538024
1.2049060406
1.2076532772
1.2099322412
1.2116894253
1.2128843839
1.2134904908
1.2112702729
1.2924082214
1.2902877372
1.2901535889
1.2898825705
1.2894813763
1.2889598457
1.2883306547
1.2876091914
1.2868126073
1.2859595597
1.2850700222
1.2841648166
1.2832656400
1.2823947218
1.2815744449
1.2808268915
1.2801725878
1.2796296411
1.2792127642
1.2789319969
1.2787929749
1.2800193633
1.0828963476
1.0824050745
1.0829889197
1.0841517174
1.0858894792
1.0882039020
1.0911067018
1.0946230816
1.0987659893
1.1035376833
1.1089271404
1.1148864851
1.1213218442
1.1280914623
1.1350144962
1.1418913288
1.1485328614
1.1547897683
1.1605726089
1.1658584089
1.1706817758
1.1751143808
1.1792409187
1.1831370391
1.1868532965
1.1904075879
1.1937852321
1.1969444139
1.1998250797
1.2023591805
1.2044795427
1.2061266073
1.2072533402
1.2078275593
1.2053247119
1.2913724063
1.2892013437
1.2891083575
1.2889167996
1.2886295148
1.2882509420
1.2877871607
1.2872462468
1.2866378133
1.2859732645
1.2852661368
1.2845320361
1.2837889311
1.2830569169
1.2823577074
1.2817138266
1.2811468047
1.2806756718
1.2803153302
1.2800748026
1.2799576043
1.2814119832
1.0790754610
1.0786994473
1.0793803454
1.0807256465
1.0827149671
1.0853329965
1.0885769332
1.0924570593
1.0969744237
1.1021144457
1.1078494134
1.1141136900
1.1207944140
1.1277316101
1.1347294676
1.1415793018
1.1480906677
1.1541207363
1.1595928039
1.1645002082
1.1688947409
1.1728643592
1.1765085153
1.1799163079
1.1831510284
1.1862428960
1.1891889202
1.1919577548
1.1944977547
1.1967466068
1.1986401037
1.2001192169
1.2011358549
1.2016562205
1.1989441813
1.2901025685
1.2878515465
1.2877983968
1.2876835747
1.2875064113
1.2872664058
1.2869635831
1.2865992853
1.2861761423
1.2856987927
1.2851747291
1.2846146176
1.2840328590
1.2834474793
1.2828794988
1.2823517598
1.2818864949
1.2815030153
1.2812151779
1.2810288737
1.2809424724
1.2826120708
1.0746510588
1.0744133808
1.0752213959
1.0767984873
1.0790973171
1.0820773063
1.0857174043
1.0900086373
1.0949352096
1.1004694313
1.1065669808
1.1131452908
1.1200744954
1.1271789474
1.1342507173
1.1410748470
1.1474618449
1.1532768107
1.1584560807
1.1630083696
1.1670005906
1.1705340213
1.1737193127
1.1766553074
1.1794146956
1.1820376087
1.1845318151
1.1868773432
1.1890337662
1.1909489503
1.1925671371
1.1938355722
1.1947102891
1.1951597833
1.1923319087
1.2886003880
1.2862427337
1.2862275085
1.2861855058
1.2861129447
1.2860049339
1.2858560841
1.2856616810
1.2854180148
1.2851235176
1.2847800912
1.2843937961
1.2839757091
1.2835419996
1.2831132202
1.2827127859
1.2823638162
1.2820857280
1.2818902591
1.2817774270
1.2817354683
1.2836029286
1.0694643677
1.0693904736
1.0703741734
1.0722572168
1.0749473433
1.0783662917
1.0824720547
1.0872302631
1.0926072514
1.0985658138
1.1050454600
1.1119486535
1.1191310661
1.1264041098
1.1335504541
1.1403513490
1.1466202518
1.1522315324
1.1571351407
1.1613549177
1.1649718837
1.1680989353
1.1708556312
1.1733478863
1.1756550171
1.1778245766
1.1798733520
1.1817921660
1.1835526455
1.1851150949
1.1864355914
1.1874716313
1.1881872541
1.1885563462
1.1857162919
1.2868821060
1.2843954683
1.2844156682
1.2844413586
1.2844660910
1.2844811872
1.2844765424
1.2844421178
1.2843685489
1.2842486461
1.2840791915
1.2838620011
1.2836051488
1.2833233484
1.2830372905
1.2827718677
1.2825522208
1.2823988137
1.2823210222
1.2823098114
1.2823350653
1.2843792437
1.0633115427
1.0634281449
1.0646710129
1.0669764363
1.0701763234
1.0741376991
1.0787966305
1.0840853756
1.0899643114
1.0963814347
1.1032646630
1.1105049825
1.1179468052
1.1253915409
1.1326150151
1.1393968112
1.1455549747
1.1509743304
1.1556191874
1.1595288002
1.1627981479
1.1655511279
1.1679150655
1.1700013174
1.1718937976
1.1736452489
1.1752793764
1.1767961740
1.1781784861
1.1793991894
1.1804272584
1.1812321784
1.1817879882
1.1820757170
1.1793260928
1.2849791827
1.2823467656
1.2823993128
1.2824863650
1.2825992654
1.2827261665
1.2828529571
1.2829650040
1.2830479535
1.2830895381
1.2830818348
1.2830227281
1.2829176155
1.2827803226
1.2826327492
1.2825031345
1.2824214250
1.2824123967
1.2824852491
1.2826194668
1.2827536499
1.2849504077
1.0559262393
1.0562606004
1.0579147543
1.0608273061
1.0647043079
1.0693574285
1.0746724537
1.0805767002
1.0870137722
1.0939254081
1.1012336135
1.1088228834
1.1165304499
1.1241508678
1.1314554711
1.1382238921
1.1442799894
1.1495199859
1.1539233322
1.1575453255
1.1604953669
1.1629085448
1.1649197119
1.1666449179
1.1681713674
1.1695551750
1.1708248166
1.1719872222
1.1730344073
1.1739502177
1.1747155008
1.1753112947
1.1757216592
1.1759350249
1.1733665392
1.2829375422
1.2801488893
1.2802301779
1.2803711472
1.2805613761
1.2807864381
1.2810288792
1.2812701356
1.2814914332
1.2816758333
1.2818109462
1.2818908313
1.2819183575
1.2819070054
1.2818813345
1.2818759839
1.2819310440
1.2820832643
1.2823498336
1.2827012163
1.2830273048
1.2853502144
1.0469391802
1.0475176206
1.0498798298
1.0537080981
1.0585073170
1.0640418455
1.0701553032
1.0767655344
1.0838171562
1.0912555740
1.0990054126
1.1069513165
1.1149281955
1.1227270144
1.1301166667
1.1368780564
1.1428415791
1.1479154448
1.1520949007
1.1554520256
1.1581114305
1.1602200692
1.1619206712
1.1633338519
1.1645493732
1.1656253198
1.1665929330
1.1674635971
1.1682357500
1.1689014508
1.1694508884
1.1698745417
1.1701649165
1.1703168402
1.1679999328
1.2808152780
1.2778665870
1.2779725681
1.2781590678
1.2784143010
1.2787217805
1.2790612738
1.2794108141
1.2797475900
1.2800501400
1.2803014906
1.2804915149
1.2806201405
1.2807005336
1.2807612267
1.2808472755
1.2810176092
1.2813361744
1.2818496037
1.2825387806
1.2832330816
1.2856539749
1.0357808099
1.0366274358
1.0402980045
1.0455519380
1.0516527611
1.0583234699
1.0653923792
1.0727985594
1.0805108132
1.0884951264
1.0966907545
1.1049907182
1.1132329310
1.1212078613
1.1286835113
1.1354426465
1.1413223095
1.1462427991
1.1502155052
1.1533299013
1.1557266271
1.1575653380
1.1589972520
1.1601477596
1.1611088141
1.1619394091
1.1626717769
1.1633193133
1.1638839030
1.1643625411
1.1647514419
1.1650474628
1.1652490190
1.1653555364
1.1633355783
1.2786797137
1.2755737725
1.2757000851
1.2759230632
1.2762298895
1.2766024289
1.2770180880
1.2774518284
1.2778769129
1.2782671147
1.2786001834
1.2788605945
1.2790437232
1.2791609282
1.2792444933
1.2793533588
1.2795768809
1.2800325169
1.2808445637
1.2820726206
1.2835295821
1.2860188455
1.0214880551
1.0226279530
1.0288813579
1.0363890077
1.0443696454
1.0524802855
1.0606589625
1.0689268191
1.0773161658
1.0858377638
1.0944601354
1.1030933803
1.1115833579
1.1197224010
1.1272783219
1.1340354959
1.1398369630
1.1446145811
1.1483957400
1.1512875670
1.1534473129
1.1550480400
1.1562500426
1.1571837735
1.1579431856
1.1585873682
1.1591480473
1.1596384389
1.1600610704
1.1604146386
1.1606979691
1.1609110146
1.1610552771
1.1611327112
1.1594288467
1.2766037161
1.2733495075
1.2734916580
1.2737417877
1.2740862978
1.2745056944
1.2749752727
1.2754670277
1.2759500882
1.2763927353
1.2767659664
1.2770463642
1.2772210481
1.2772948572
1.2772991111
1.2773051013
1.2774421452
1.2779182671
1.2790301332
1.2811097913
1.2842473197
1.2867738329
1.0019803248
1.0034820580
1.0150933459
1.0265161086
1.0371125381
1.0469796705
1.0563687356
1.0654998228
1.0745262632
1.0835316525
1.0925274605
1.1014476032
1.1101489351
1.1184264213
1.1260470858
1.1327956036
1.1385194830
1.1431608699
1.1467623827
1.1494485280
1.1513933029
1.1527835273
1.1537889190
1.1545451697
1.1551480740
1.1556561837
1.1560995296
1.1564893637
1.1568265148
1.1571086166
1.1573341213
1.1575031498
1.1576177271
1.1576804254
1.1562874491
1.2746615720
1.2712736317
1.2714271913
1.2716953155
1.2720637954
1.2725119489
1.2730130564
1.2735360453
1.2740454144
1.2745027558
1.2748699983
1.2751117451
1.2752001535
1.2751233095
1.2748972671
1.2745890747
1.2743587444
1.2745338060
1.2757352209
1.2790477189
1.2860531831
1.2885835109
0.9723596042
0.9742186030
0.9986080860
1.0166544257
1.0307271018
1.0425209464
1.0530596430
1.0629308890
1.0724669110
1.0818424825
1.0911168969
1.1002484112
1.1091038883
1.1174791244
1.1251380907
1.1318632923
1.1375043003
1.1420115357
1.1454413995
1.1479348799
1.1496822813
1.1508840416
1.1517192806
1.1523288878
1.1528103000
1.1532210477
1.1535886110
1.1539209954
1.1542156277
1.1544670361
1.1546710635
1.1548257761
1.1549317527
1.1549906990
1.1538828137
1.2729252614
1.2694228920
1.2695836948
1.2698612883
1.2702409613
1.2707009317
1.2712124656
1.2717412203
1.2722464356
1.2726815871
1.2729966728
1.2731388960
1.2730555307
1.2727002863
1.2720434674
1.2710980594
1.2699844013
1.2690921677
1.2695040270
1.2741000409
1.2902504881
1.2927461434
0.9348241875
0.9367945106
0.9843644379
1.0102037600
1.0271797194
1.0402176483
1.0513898625
1.0616407692
1.0714333128
1.0809964680
1.0904145039
1.0996568313
1.1085925474
1.1170131171
1.1246754635
1.1313564910
1.1369047874
1.1412764757
1.1445397131
1.1468504675
1.1484143144
1.1494446347
1.1501295198
1.1506147681
1.1509992006
1.1513389914
1.1516585643
1.1519619373
1.1522421355
1.1524893560
1.1526954640
1.1528550870
1.1529661139
1.1530284337
1.1521637941
1.2714607336
1.2678670943
1.2680314038
1.2683109771
1.2686906767
1.2691476820
1.2696512572
1.2701636600
1.2706384260
1.2710197928
1.2712433209
1.2712334273
1.2709009747
1.2701401238
1.2688181239
1.2667567244
1.2636911081
1.2591600819
1.2521983089
1.2403809525
1.2165405697
1.1408943419
1.0293315295
1.0297495581
1.0244071132
1.0039995015
1.0096773413
1.0200956265
1.0311051489
1.0417952187
1.0520430214
1.0619343717
1.0715911729
1.0811074553
1.0905141814
1.0997583618
1.1086961172
1.1171068290
1.1247356030
1.1313501507
1.1367950016
1.1410292610
1.1441304894
1.1462676693
1.1476600838
1.1485328877
1.1490823361
1.1494586286
1.1497616786
1.1500461303
1.1503331966
1.1506226922
1.1509029193
1.1511593016
1.1513791902
1.1515531978
1.1516759808
1.1517451819
1.1510704544
1.2703246249
1.2666657703
1.2668303839
1.2671057567
1.2674763992
1.2679185548
1.2683996243
1.2688786319
1.2693035784
1.2696095674
1.2697176357
1.2695289912
1.2689172976
1.2677167988
1.2656957011
1.2625082805
1.2576028419
1.2500282001
1.2380330615
1.2182320838
1.1839656974
1.1186192441
1.0283109725
1.0291709234
1.0262423372
1.0184740223
1.0200408973
1.0265490162
1.0351033703
1.0443892337
1.0538584826
1.0633135342
1.0727133862
1.0820675109
1.0913653574
1.1005327655
1.1094117351
1.1177680197
1.1253332298
1.1318640281
1.1371988124
1.1412974076
1.1442444478
1.1462197083
1.1474542179
1.1481833320
1.1486103590
1.1488892337
1.1491206743
1.1493577939
1.1496187649
1.1498994475
1.1501836800
1.1504523325
1.1506884001
1.1508785763
1.1510143237
1.1510910384
1.1505454057
1.2695616647
1.2658655746
1.2660278469
1.2662942370
1.2666489977
1.2670676157
1.2675159508
1.2679503291
1.2683141000
1.2685346697
1.2685209113
1.2681549321
1.2672808642
1.2656884757
1.2630801719
1.2590173670
1.2528323746
1.2434759647
1.2292847552
1.2076978514
1.1751880198
1.1273440620
1.0729111190
1.0525320100
1.0409494302
1.0327116756
1.0308394103
1.0339735584
1.0401599160
1.0479764281
1.0565729150
1.0655038477
1.0745711751
1.0836985784
1.0928325751
1.1018773950
1.1106611289
1.1189363494
1.1264214064
1.1328616652
1.1380885200
1.1420609529
1.1448685687
1.1466996080
1.1477946016
1.1483972278
1.1487165220
1.1489093928
1.1490771193
1.1492714465
1.1495079481
1.1497791425
1.1500651014
1.1503428449
1.1505916721
1.1507949299
1.1509413373
1.1510243462
1.1505428211
1.2692021972
1.2654977829
1.2656555496
1.2659094299
1.2662435381
1.2666328650
1.2670422211
1.2674260791
1.2677245622
1.2678597287
1.2677321058
1.2672110257
1.2661217926
1.2642283269
1.2612006658
1.2565678480
1.2496531002
1.2394858379
1.2247232969
1.2036859986
1.1747700843
1.1375217223
1.0981539006
1.0727429990
1.0561274832
1.0454856982
1.0408789950
1.0413867877
1.0455503406
1.0520066858
1.0597499403
1.0681507724
1.0768741662
1.0857624696
1.0947202440
1.1036309655
1.1123101503
1.1204988977
1.1279039599
1.1342605542
1.1393933642
1.1432597159
1.1459523832
1.1476657236
1.1486473172
1.1491470901
1.1493783570
1.1495002099
1.1496142817
1.1497712585
1.1499847438
1.1502447535
1.1505285489
1.1508102732
1.1510664720
1.1512779770
1.1514314313
1.1515188031
1.1510350024
1.2692606406
1.2655767970
1.2657282366
1.2659670297
1.2662772937
1.2666338456
1.2670010556
1.2673325775
1.2675670251
1.2676238651
1.2673995625
1.2667573332
1.2655137985
1.2634224076
1.2601440115
1.2552083153
1.2479691157
1.2375639338
1.2229224515
1.2029277435
1.1768941675
1.1455172247
1.1130580692
1.0871907702
1.0683356662
1.0557956677
1.0492559076
1.0479234994
1.0505842009
1.0559594624
1.0629850941
1.0709223949
1.0793390377
1.0880131603
1.0968138252
1.1056061970
1.1141947575
1.1223110740
1.1296525653
1.1359463108
1.1410114234
1.1448033472
1.1474164725
1.1490487706
1.1499525236
1.1503816571
1.1505522285
1.1506247294
1.1507010061
1.1508310417
1.1510271949
1.1512778869
1.1515585774
1.1518415790
1.1521016348
1.1523179295
1.1524757083
1.1525659399
1.1520145159
1.2697345052
1.2660992131
1.2662426732
1.2664643417
1.2667484950
1.2670701352
1.2673938609
1.2676736196
1.2678483200
1.2678376410
1.2675381417
1.2668130520
1.2654785716
1.2632884188
1.2599073982
1.2548782310
1.2475831086
1.2372287765
1.2228879113
1.2036971617
1.1793195876
1.1507268146
1.1212413056
1.0958061329
1.0762371922
1.0627844754
1.0552405218
1.0529072921
1.0546948721
1.0593919357
1.0659309825
1.0735319386
1.0817160983
1.0902264210
1.0989097645
1.1076179227
1.1161463158
1.1242188807
1.1315261572
1.1377895341
1.1428242024
1.1465838695