<VTKFile type="UnstructuredGrid" version="0.1">
	<UnstructuredGrid>
		<Piece NumberOfPoints="13548" NumberOfCells="3387">
			<CellData>
				<DataArray type="Int32" Name="ghost" NumberOfComponents="1" Format="ascii">
1
1
1
1
1
1
1
1
1
1
1
1
1
1
1
1
1
1
1
1
1
1
1
1
1
1
1
1
1
1
1
1
1
1
1
1
1
1
1
1
1
1
1
1
1
1
1
1
1
1
1
1
1
1
1
1
1
1
0
0
0
0
0
0
0
0
0
0
0
0
0
0
0
0
0
0
0
0
1
1
0
0
0
0
0
0
0
0
0
0
0
0
0
0
0
0
0
0
0
0
0
0
0
0
0
0
0
0
0
0
0
0
0
1
1
0
0
0
0
0
0
0
0
0
0
0
0
0
0
0
0
0
0
0
0
1
1
0
0
0
0
0
0
0
0
0
0
0
0
0
0
0
0
0
0
0
0
0
0
0
0
0
0
0
0
0
0
0
0
0
1
1
0
0
0
0
0
0
0
0
0
0
0
0
0
0
0
0
0
0
0
0
1
1
0
0
0
0
0
0
0
0
0
0
0
0
0
0
0
0
0
0
0
0
0
0
0
0
0
0
0
0
0
0
0
0
0
1
1
0
0
0
0
0
0
0
0
0
0
0
0
0
0
0
0
0
0
0
0
1
1
0
0
0
0
0
0
0
0
0
0
0
0
0
0
0
0
0
0
0
0
0
0
0
0
0
0
0
0
0
0
0
0
0
1
1
0
0
0
0
0
0
0
0
0
0
0
0
0
0
0
0
0
0
0
0
1
1
0
0
0
0
0
0
0
0
0
0
0
0
0
0
0
0
0
0
0
0
0
0
0
0
0
0
0
0
0
0
0
0
0
1
1
0
0
0
0
0
0
0
0
0
0
0
0
0
0
0
0
0
0
0
0
1
1
0
0
0
0
0
0
0
0
0
0
0
0
0
0
0
0
0
0
0
0
0
0
0
0
0
0
0
0
0
0
0
0
0
1
1
0
0
0
0
0
0
0
0
0
0
0
0
0
0
0
0
0
0
0
0
1
1
0
0
0
0
0
0
0
0
0
0
0
0
0
0
0
0
0
0
0
0
0
0
0
0
0
0
0
0
0
0
0
0
0
1
1
0
0
0
0
0
0
0
0
0
0
0
0
0
0
0
0
0
0
0
0
1
1
0
0
0
0
0
0
0
0
0
0
0
0
0
0
0
0
0
0
0
0
0
0
0
0
0
0
0
0
0
0
0
0
0
1
1
0
0
0
0
0
0
0
0
0
0
0
0
0
0
0
0
0
0
0
0
1
1
0
0
0
0
0
0
0
0
0
0
0
0
0
0
0
0
0
0
0
0
0
0
0
0
0
0
0
0
0
0
0
0
0
1
1
0
0
0
0
0
0
0
0
0
0
0
0
0
0
0
0
0
0
0
0
1
1
0
0
0
0
0
0
0
0
0
0
0
0
0
0
0
0
0
0
0
0
0
0
0
0
0
0
0
0
0
0
0
0
0
1
1
0
0
0
0
0
0
0
0
0
0
0
0
0
0
0
0
0
0
0
0
1
1
0
0
0
0
0
0
0
0
0
0
0
0
0
0
0
0
0
0
0
0
0
0
0
0
0
0
0
0
0
0
0
0
0
1
1
0
0
0
0
0
0
0
0
0
0
0
0
0
0
0
0
0
0
0
0
1
1
0
0
0
0
0
0
0
0
0
0
0
0
0
0
0
0
0
0
0
0
0
0
0
0
0
0
0
0
0
0
0
0
0
1
1
0
0
0
0
0
0
0
0
0
0
0
0
0
0
0
0
0
0
0
0
1
1
0
0
0
0
0
0
0
0
0
0
0
0
0
0
0
0
0
0
0
0
0
0
0
0
0
0
0
0
0
0
0
0
0
1
1
0
0
0
0
0
0
0
0
0
0
0
0
0
0
0
0
0
0
0
0
1
1
0
0
0
0
0
0
0
0
0
0
0
0
0
0
0
0
0
0
0
0
0
0
0
0
0
0
0
0
0
0
0
0
0
1
1
0
0
0
0
0
0
0
0
0
0
0
0
0
0
0
0
0
0
0
0
1
1
0
0
0
0
0
0
0
0
0
0
0
0
0
0
0
0
0
0
0
0
0
0
0
0
0
0
0
0
0
0
0
0
0
1
1
0
0
0
0
0
0
0
0
0
0
0
0
0
0
0
0
0
0
0
0
1
1
0
0
0
0
0
0
0
0
0
0
0
0
0
0
0
0
0
0
0
0
0
0
0
0
0
0
0
0
0
0
0
0
0
1
1
0
0
0
0
0
0
0
0
0
0
0
0
0
0
0
0
0
0
0
0
1
1
0
0
0
0
0
0
0
0
0
0
0
0
0
0
0
0
0
0
0
0
0
0
0
0
0
0
0
0
0
0
0
0
0
1
1
0
0
0
0
0
0
0
0
0
0
0
0
0
0
0
0
0
0
0
0
1
1
0
0
0
0
0
0
0
0
0
0
0
0
0
0
0
0
0
0
0
0
0
0
0
0
0
0
0
0
0
0
0
0
0
1
1
0
0
0
0
0
0
0
0
0
0
0
0
0
0
0
0
0
0
0
0
1
1
0
0
0
0
0
0
0
0
0
0
0
0
0
0
0
0
0
0
0
0
0
0
0
0
0
0
0
0
0
0
0
0
0
1
1
0
0
0
0
0
0
0
0
0
0
0
0
0
0
0
0
0
0
0
0
1
1
0
0
0
0
0
0
0
0
0
0
0
0
0
0
0
0
0
0
0
0
0
0
0
0
0
0
0
0
0
0
0
0
0
1
1
0
0
0
0
0
0
0
0
0
0
0
0
0
0
0
0
0
0
0
0
1
1
0
0
0
0
0
0
0
0
0
0
0
0
0
0
0
0
0
0
0
0
0
0
0
0
0
0
0
0
0
0
0
0
0
1
1
0
0
0
0
0
0
0
0
0
0
0
0
0
0
0
0
0
0
0
0
1
1
0
0
0
0
0
0
0
0
0
0
0
0
0
0
0
0
0
0
0
0
0
0
0
0
0
0
0
0
0
0
0
0
0
1
1
0
0
0
0
0
0
0
0
0
0
0
0
0
0
0
0
0
0
0
0
1
1
0
0
0
0
0
0
0
0
0
0
0
0
0
0
0
0
0
0
0
0
0
0
0
0
0
0
0
0
0
0
0
0
0
1
1
0
0
0
0
0
0
0
0
0
0
0
0
0
0
0
0
0
0
0
0
1
1
0
0
0
0
0
0
0
0
0
0
0
0
0
0
0
0
0
0
0
0
0
0
0
0
0
0
0
0
0
0
0
0
0
1
1
0
0
0
0
0
0
0
0
0
0
0
0
0
0
0
0
0
0
0
0
0
1
1
0
0
0
0
0
0
0
0
0
0
0
0
0
0
0
0
0
0
0
0
0
0
0
0
0
0
0
0
0
0
0
0
0
0
1
1
0
0
0
0
0
0
0
0
0
0
0
0
0
0
0
0
0
0
0
0
0
0
0
0
0
0
0
0
0
0
0
0
0
0
0
0
0
0
0
0
0
0
0
0
0
0
0
0
0
0
0
0
0
0
0
0
0
1
1
0
0
0
0
0
0
0
0
0
0
0
0
0
0
0
0
0
0
0
0
0
0
0
0
0
0
0
0
0
0
0
0
0
0
0
0
0
0
0
0
0
0
0
0
0
0
0
0
0
0
0
0
0
0
0
0
0
1
1
0
0
0
0
0
0
0
0
0
0
0
0
0
0
0
0
0
0
0
0
0
0
0
0
0
0
0
0
0
0
0
0
0
0
0
0
0
0
0
0
0
0
0
0
0
0
0
0
0
0
0
0
0
0
0
0
0
1
1
0
0
0
0
0
0
0
0
0
0
0
0
0
0
0
0
0
0
0
0
0
0
0
0
0
0
0
0
0
0
0
0
0
0
0
0
0
0
0
0
0
0
0
0
0
0
0
0
0
0
0
0
0
0
0
0
0
1
1
0
0
0
0
0
0
0
0
0
0
0
0
0
0
0
0
0
0
0
0
0
0
0
0
0
0
0
0
0
0
0
0
0
0
0
0
0
0
0
0
0
0
0
0
0
0
0
0
0
0
0
0
0
0
0
0
0
1
1
0
0
0
0
0
0
0
0
0
0
0
0
0
0
0
0
0
0
0
0
0
0
0
0
0
0
0
0
0
0
0
0
0
0
0
0
0
0
0
0
0
0
0
0
0
0
0
0
0
0
0
0
0
0
0
0
0
1
1
0
0
0
0
0
0
0
0
0
0
0
0
0
0
0
0
0
0
0
0
0
0
0
0
0
0
0
0
0
0
0
0
0
0
0
0
0
0
0
0
0
0
0
0
0
0
0
0
0
0
0
0
0
0
0
0
0
1
1
0
0
0
0
0
0
0
0
0
0
0
0
0
0
0
0
0
0
0
0
0
0
0
0
0
0
0
0
0
0
0
0
0
0
0
0
0
0
0
0
0
0
0
0
0
0
0
0
0
0
0
0
0
0
0
0
0
1
1
0
0
0
0
0
0
0
0
0
0
0
0
0
0
0
0
0
0
0
0
0
0
0
0
0
0
0
0
0
0
0
0
0
0
0
0
0
0
0
0
0
0
0
0
0
0
0
0
0
0
0
0
0
0
0
0
0
1
1
0
0
0
0
0
0
0
0
0
0
0
0
0
0
0
0
0
0
0
0
0
0
0
0
0
0
0
0
0
0
0
0
0
0
0
0
0
0
0
0
0
0
0
0
0
0
0
0
0
0
0
0
0
0
0
0
0
1
1
0
0
0
0
0
0
0
0
0
0
0
0
0
0
0
0
0
0
0
0
0
1
1
0
0
0
0
0
0
0
0
0
0
0
0
0
0
0
0
0
0
0
0
0
0
0
0
0
0
0
0
0
0
0
0
0
0
1
1
0
0
0
0
0
0
0
0
0
0
0
0
0
0
0
0
0
0
0
0
1
1
0
0
0
0
0
0
0
0
0
0
0
0
0
0
0
0
0
0
0
0
0
0
0
0
0
0
0
0
0
0
0
0
0
1
1
0
0
0
0
0
0
0
0
0
0
0
0
0
0
0
0
0
0
0
0
1
1
0
0
0
0
0
0
0
0
0
0
0
0
0
0
0
0
0
0
0
0
0
0
0
0
0
0
0
0
0
0
0
0
0
1
1
0
0
0
0
0
0
0
0
0
0
0
0
0
0
0
0
0
0
0
0
1
1
0
0
0
0
0
0
0
0
0
0
0
0
0
0
0
0
0
0
0
0
0
0
0
0
0
0
0
0
0
0
0
0
0
1
1
0
0
0
0
0
0
0
0
0
0
0
0
0
0
0
0
0
0
0
0
1
1
0
0
0
0
0
0
0
0
0
0
0
0
0
0
0
0
0
0
0
0
0
0
0
0
0
0
0
0
0
0
0
0
0
1
1
0
0
0
0
0
0
0
0
0
0
0
0
0
0
0
0
0
0
0
0
1
1
0
0
0
0
0
0
0
0
0
0
0
0
0
0
0
0
0
0
0
0
0
0
0
0
0
0
0
0
0
0
0
0
0
1
1
0
0
0
0
0
0
0
0
0
0
0
0
0
0
0
0
0
0
0
0
1
1
0
0
0
0
0
0
0
0
0
0
0
0
0
0
0
0
0
0
0
0
0
0
0
0
0
0
0
0
0
0
0
0
0
1
1
0
0
0
0
0
0
0
0
0
0
0
0
0
0
0
0
0
0
0
0
1
1
0
0
0
0
0
0
0
0
0
0
0
0
0
0
0
0
0
0
0
0
0
0
0
0
0
0
0
0
0
0
0
0
0
1
1
0
0
0
0
0
0
0
0
0
0
0
0
0
0
0
0
0
0
0
0
1
1
0
0
0
0
0
0
0
0
0
0
0
0
0
0
0
0
0
0
0
0
0
0
0
0
0
0
0
0
0
0
0
0
0
1
1
0
0
0
0
0
0
0
0
0
0
0
0
0
0
0
0
0
0
0
0
1
1
0
0
0
0
0
0
0
0
0
0
0
0
0
0
0
0
0
0
0
0
0
0
0
0
0
0
0
0
0
0
0
0
0
1
1
0
0
0
0
0
0
0
0
0
0
0
0
0
0
0
0
0
0
0
0
1
1
0
0
0
0
0
0
0
0
0
0
0
0
0
0
0
0
0
0
0
0
0
0
0
0
0
0
0
0
0
0
0
0
0
1
1
0
0
0
0
0
0
0
0
0
0
0
0
0
0
0
0
0
0
0
0
1
1
0
0
0
0
0
0
0
0
0
0
0
0
0
0
0
0
0
0
0
0
0
0
0
0
0
0
0
0
0
0
0
0
0
1
1
0
0
0
0
0
0
0
0
0
0
0
0
0
0
0
0
0
0
0
0
1
1
0
0
0
0
0
0
0
0
0
0
0
0
0
0
0
0
0
0
0
0
0
0
0
0
0
0
0
0
0
0
0
0
0
1
1
0
0
0
0
0
0
0
0
0
0
0
0
0
0
0
0
0
0
0
0
1
1
0
0
0
0
0
0
0
0
0
0
0
0
0
0
0
0
0
0
0
0
0
0
0
0
0
0
0
0
0
0
0
0
0
1
1
0
0
0
0
0
0
0
0
0
0
0
0
0
0
0
0
0
0
0
0
1
1
0
0
0
0
0
0
0
0
0
0
0
0
0
0
0
0
0
0
0
0
0
0
0
0
0
0
0
0
0
0
0
0
0
1
1
0
0
0
0
0
0
0
0
0
0
0
0
0
0
0
0
0
0
0
0
1
1
0
0
0
0
0
0
0
0
0
0
0
0
0
0
0
0
0
0
0
0
0
0
0
0
0
0
0
0
0
0
0
0
0
1
1
0
0
0
0
0
0
0
0
0
0
0
0
0
0
0
0
0
0
0
0
1
1
0
0
0
0
0
0
0
0
0
0
0
0
0
0
0
0
0
0
0
0
0
0
0
0
0
0
0
0
0
0
0
0
0
1
1
0
0
0
0
0
0
0
0
0
0
0
0
0
0
0
0
0
0
0
0
1
1
0
0
0
0
0
0
0
0
0
0
0
0
0
0
0
0
0
0
0
0
0
0
0
0
0
0
0
0
0
0
0
0
0
1
1
0
0
0
0
0
0
0
0
0
0
0
0
0
0
0
0
0
0
0
0
1
1
0
0
0
0
0
0
0
0
0
0
0
0
0
0
0
0
0
0
0
0
0
0
0
0
0
0
0
0
0
0
0
0
0
1
1
0
0
0
0
0
0
0
0
0
0
0
0
0
0
0
0
0
0
0
0
1
1
0
0
0
0
0
0
0
0
0
0
0
0
0
0
0
0
0
0
0
0
0
0
0
0
0
0
0
0
0
0
0
0
0
1
1
0
0
0
0
0
0
0
0
0
0
0
0
0
0
0
0
0
0
0
0
1
1
0
0
0
0
0
0
0
0
0
0
0
0
0
0
0
0
0
0
0
0
0
0
0
0
0
0
0
0
0
0
0
0
0
1
1
0
0
0
0
0
0
0
0
0
0
0
0
0
0
0
0
0
0
0
0
1
1
0
0
0
0
0
0
0
0
0
0
0
0
0
0
0
0
0
0
0
0
0
0
0
0
0
0
0
0
0
0
0
0
0
1
1
1
1
1
1
1
1
1
1
1
1
1
1
1
1
1
1
1
1
1
1
1
1
1
1
1
1
1
1
1
1
1
1
1
1
1
1
1
1
1
1
1
1
1
1
1
1
1
1
1
1
1
1
1
1
1
1
				</DataArray>
				<DataArray type="Float64" Name="h" NumberOfComponents="1" Format="ascii">
1.1302635247
1.1321138035
1.1320151401
1.1318221890
1.1315405810
1.1311784658
1.1307461948
1.1302557654
1.1297205476
1.1291548181
1.1285732083
1.1279903497
1.1274204705
1.1268770625
1.1263725818
1.1259182174
1.1255238389
1.1251977707
1.1249467160
1.1247759069
1.1246888895
1.1246888895
1.2452574285
1.2434607717
1.2433494904
1.2431355259
1.2428312293
1.2424550875
1.2420313994
1.2415894940
1.2411631704
1.2407896664
1.2405081204
1.2403580350
1.2403773062
1.2405998523
1.2410532232
1.2417560624
1.2427157167
1.2439264485
1.2453683665
1.2470076215
1.2487980997
1.2506842960
1.2526056505
1.2545015256
1.2563158170
1.2580011147
1.2595213417
1.2608524933
1.2619822200
1.2629077459
1.2636329077
1.2641654223
1.2645138167
1.2646850517
1.2646850517
1.1321138035
1.1339335901
1.1338251450
1.1336127154
1.1333022063
1.1329022109
1.1324237210
1.1318795930
1.1312842768
1.1306533524
1.1300029573
1.1293493933
1.1287086869
1.1280961966
1.1275262494
1.1270118528
1.1265645702
1.1261942344
1.1259088234
1.1257145586
1.1256156597
1.1246888895
1.2434607717
1.2416247177
1.2415323400
1.2413558622
1.2411072736
1.2408045010
1.2404710558
1.2401352187
1.2398294335
1.2395892114
1.2394515274
1.2394532158
1.2396289170
1.2400086448
1.2406153997
1.2414626934
1.2425523401
1.2438730188
1.2453996564
1.2470941775
1.2489077821
1.2507842673
1.2526645972
1.2544918348
1.2562153970
1.2577946259
1.2592007074
1.2604167351
1.2614367669
1.2622634161
1.2629047989
1.2633718531
1.2636753678
1.2638237349
1.2646850517
1.1320161682
1.1338152158
1.1337098189
1.1335034019
1.1332016924
1.1328130250
1.1323480617
1.1318192703
1.1312406699
1.1306273826
1.1299950769
1.1293595917
1.1287365077
1.1281407663
1.1275863160
1.1270858273
1.1266505738
1.1262901474
1.1260123332
1.1258232093
1.1257269007
1.1248322839
1.2432315549
1.2414127989
1.2413203985
1.2411439707
1.2408956062
1.2405933733
1.2402609514
1.2399268007
1.2396235457
1.2393868663
1.2392538847
1.2392615536
1.2394445975
1.2398330789
1.2404500136
1.2413088953
1.2424114962
1.2437464267
1.2452885147
1.2469995517
1.2488305754
1.2507251734
1.2526240413
1.2544699190
1.2562118586
1.2578088193
1.2592316100
1.2604629763
1.2614966734
1.2623350655
1.2629860716
1.2634604791
1.2637689688
1.2639198616
1.2647745380
1.1318294396
1.1335876276
1.1334881463
1.1332934001
1.1330087759
1.1326421123
1.1322034372
1.1317044703
1.1311584002
1.1305794637
1.1299824209
1.1293822107
1.1287935442
1.1282305466
1.1277064212
1.1272331732
1.1268215007
1.1264805142
1.1262176122
1.1260385843
1.1259473642
1.1251151966
1.2427593105
1.2409741062
1.2408821328
1.2407067145
1.2404600842
1.2401605100
1.2398319104
1.2395030026
1.2392066726
1.2389788483
1.2388568716
1.2388778774
1.2390767226
1.2394835540
1.2401214215
1.2410038049
1.2421324243
1.2434957953
1.2450685974
1.2468124099
1.2486779895
1.2506085159
1.2525441611
1.2544270332
1.2562054680
1.2578376683
1.2592936963
1.2605556025
1.2616165329
1.2624783471
1.2631485627
1.2636376568
1.2639560870
1.2641120275
1.2649534839
1.1315592843
1.1332577536
1.1331666837
1.1329885380
1.1327282282
1.1323929009
1.1319916971
1.1315352871
1.1310356905
1.1305058928
1.1299593645
1.1294097603
1.1288705433
1.1283546605
1.1278742325
1.1274402911
1.1270626862
1.1267498150
1.1265084989
1.1263440944
1.1262602468
1.1255179429
1.2420483202
1.2403117845
1.2402207549
1.2400474335
1.2398042341
1.2395096789
1.2391879893
1.2388682060
1.2385835427
1.2383702338
1.2382658900
1.2383078649
1.2385311705
1.2389660480
1.2396355831
1.2405532332
1.2417206536
1.2431262494
1.2447445207
1.2465367804
1.2484534164
1.2504370323
1.2524270574
1.2543646914
1.2561972267
1.2578817513
1.2593872145
1.2606946230
1.2617961955
1.2626930142
1.2633919726
1.2639030626
1.2642363895
1.2643998963
1.2652216719
1.1312134997
1.1328351747
1.1327545048
1.1325968942
1.1323666859
1.1320701954
1.1317154948
1.1313119834
1.1308702572
1.1304017683
1.1299183955
1.1294321965
1.1289550698
1.1284984723
1.1280731427
1.1276888587
1.1273543681
1.1270771319
1.1268632083
1.1267173773
1.1266428981
1.1260139316
1.2411043292
1.2394299568
1.2393404954
1.2391705620
1.2389327854
1.2386459866
1.2383347400
1.2380284584
1.2377607244
1.2375681082
1.2374885043
1.2375594849
1.2378162021
1.2382889711
1.2390008878
1.2399653643
1.2411839772
1.2426450146
1.2443227912
1.2461783448
1.2481616371
1.2502145768
1.2522756780
1.2542849997
1.2561885010
1.2579418185
1.2595124302
1.2608799444
1.2620353218
1.2629785722
1.2637157168
1.2642560641
1.2646092212
1.2647828035
1.2655785729
1.1308014999
1.1323315000
1.1322626264
1.1321283244
1.1319323219
1.1316800320
1.1313783589
1.1310353026
1.1306598787
1.1302618215
1.1298512080
1.1294382692
1.1290330940
1.1286453948
1.1282842743
1.1279580078
1.1276740066
1.1274385848
1.1272568557
1.1271328798
1.1270694304
1.1265725915
1.2399344302
1.2383336721
1.2382465447
1.2380815563
1.2378515756
1.2375757547
1.2372790508
1.2369912721
1.2367463801
1.2365812723
1.2365341002
1.2366426098
1.2369420376
1.2374627109
1.2382276832
1.2392502814
1.2405319849
1.2420609632
1.2438114009
1.2457440664
1.2478084928
1.2499458285
1.2520935659
1.2541904358
1.2561808209
1.2580186027
1.2596694417
1.2611111857
1.2623331879
1.2633340693
1.2641187017
1.2646954838
1.2650733583
1.2652595033
1.2660230565
1.1303334550
1.1317593735
1.1317030712
1.1315936331
1.1314341762
1.1312292103
1.1309844600
1.1307064957
1.1304026987
1.1300810025
1.1297495690
1.1294166591
1.1290903818
1.1287785128
1.1284883112
1.1282263355
1.1279984484
1.1278096175
1.1276638345
1.1275642965
1.1275131899
1.1271622051
1.2385476409
1.2370295749
1.2369457027
1.2367875027
1.2365681000
1.2363069921
1.2360295262
1.2357658994
1.2355504264
1.2354202823
1.2354138031
1.2355688204
1.2359205507
1.2364992375
1.2373278065
1.2384194437
1.2397755090
1.2413840792
1.2432192647
1.2452416696
1.2474003927
1.2496358437
1.2518844427
1.2540834806
1.2561755475
1.2581125087
1.2598578806
1.2613873863
1.2626883994
1.2637578053
1.2645990233
1.2652192889
1.2656266909
1.2658278479
1.2665530262
1.1298201846
1.1311322225
1.1310886713
1.1310044846
1.1308822207
1.1307255537
1.1305391003
1.1303280647
1.1300982378
1.1298557669
1.1296068780
1.1293578025
1.1291145717
1.1288828916
1.1286680169
1.1284746076
1.1283067868
1.1281679869
1.1280609038
1.1279877251
1.1279499442
1.1277534529
1.2369537595
1.2355248508
1.2354453258
1.2352960699
1.2350904681
1.2348483572
1.2345954539
1.2343623044
1.2341835114
1.2340964332
1.2341394741
1.2343504120
1.2347643027
1.2354111649
1.2363136869
1.2374848374
1.2389258505
1.2406247268
1.2425555774
1.2446790886
1.2469438590
1.2492896624
1.2516518877
1.2539663299
1.2561736455
1.2582234196
1.2600767322
1.2617068225
1.2630986971
1.2642471284
1.2651537486
1.2658243549
1.2662659750
1.2664845327
1.2671651095
1.1292727117
1.1304636957
1.1304325482
1.1303729661
1.1302870428
1.1301777444
1.1300487241
1.1299039663
1.1297478015
1.1295846929
1.1294189921
1.1292549174
1.1290963908
1.1289469710
1.1288097897
1.1286874579
1.1285821864
1.1284956913
1.1284291972
1.1283837298
1.1283599756
1.1283218126
1.2351633210
1.2338272815
1.2337533717
1.2336155317
1.2334273944
1.2332091066
1.2329867014
1.2327909992
1.2326567845
1.2326214623
1.2327233401
1.2329999673
1.2334860496
1.2342112181
1.2351977731
1.2364584026
1.2379941810
1.2397930927
1.2418294082
1.2440639512
1.2464450515
1.2489118970
1.2513989525
1.2538405514
1.2561753249
1.2583503782
1.2603240330
1.2620667055
1.2635606385
1.2647980953
1.2657785614
1.2665060980
1.2669864523
1.2672247098
1.2678542263
1.1287017194
1.1297670098
1.1297474921
1.1297110282
1.1296593745
1.1295949630
1.1295206870
1.1294395226
1.1293545413
1.1292686946
1.1291845908
1.1291045157
1.1290303086
1.1289633512
1.1289045721
1.1288544092
1.1288130029
1.1287801743
1.1287554948
1.1287386614
1.1287294250
1.1288491528
1.2331882332
1.2319459981
1.2318791283
1.2317554506
1.2315888159
1.2313996239
1.2312141398
1.2310633478
1.2309820722
1.2310075869
1.2311779051
1.2315301277
1.2320984095
1.2329117892
1.2339920329
1.2353514329
1.2369909363
1.2388985624
1.2410488531
1.2434029839
1.2459091200
1.2485061647
1.2511276731
1.2537066315
1.2561796377
1.2584911565
1.2605964818
1.2624628150
1.2640692451
1.2654051193
1.2664674046
1.2672581161
1.2677814912
1.2680416285
1.2686131880
1.1281175652
1.1290548714
1.1290459003
1.1290304581
1.1290101145
1.1289869741
1.1289634142
1.1289416624
1.1289237830
1.1289114430
1.1289056932
1.1289070196
1.1289152520
1.1289296074
1.1289487634
1.1289708828
1.1289938852
1.1290155127
1.1290334820
1.1290459691
1.1290516330
1.1293252472
1.2310408807
1.2298906958
1.2298324325
1.2297259066
1.2295851313
1.2294306709
1.2292889023
1.2291908298
1.2291711410
1.2292667764
1.2295152138
1.2299528789
1.2306131347
1.2315242613
1.2327072608
1.2341739714
1.2359251685
1.2379491306
1.2402207157
1.2427014994
1.2453398608
1.2480746063
1.2508386852
1.2535636878
1.2561842383
1.2586420724
1.2608891934
1.2628892538
1.2646177522
1.2660607160
1.2672122211
1.2680719250
1.2686423230
1.2689263720
1.2694323895
1.1275300951
1.1283392440
1.1283395466
1.1283426522
1.1283501063
1.1283639104
1.1283861933
1.1284187224
1.1284628414
1.1285191974
1.1285875092
1.1286666359
1.1287545113
1.1288482346
1.1289442128
1.1290382467
1.1291258848
1.1292025870
1.1292639795
1.1293064774
1.1293274442
1.1297481484
1.2287343893
1.2276720021
1.2276240369
1.2275378614
1.2274275584
1.2273137248
1.2272226894
1.2271852990
1.2272359051
1.2274108887
1.2277469361
1.2282795397
1.2290410695
1.2300588513
1.2313529596
1.2329345282
1.2348043152
1.2369511061
1.2393500495
1.2419632232
1.2447394093
1.2476177556
1.2505308368
1.2534090923
1.2561850545
1.2587976463
1.2611953942
1.2633380731
1.2651972172
1.2667551082
1.2680025657
1.2689365817
1.2695576703
1.2698674885
1.2702994231
1.1269484873
1.1276311526
1.1276393781
1.1276583996
1.1276899019
1.1277360127
1.1277988873
1.1278801338
1.1279806796
1.1281004394
1.1282380528
1.1283909567
1.1285553354
1.1287262497
1.1288978401
1.1290634690
1.1292161525
1.1293488315
1.1294547485
1.1295282414
1.1295650939
1.1301240874
1.2262833477
1.2253023099
1.2252664422
1.2252039866
1.2251289422
1.2250617490
1.2250284786
1.2250596133
1.2251889547
1.2254521049
1.2258846696
1.2265209878
1.2273922179
1.2285246183
1.2299371173
1.2316400601
1.2336339637
1.2359085515
1.2384399800
1.2411897826
1.2441079890
1.2471342866
1.2502011970
1.2532381878
1.2561758558
1.2589501594
1.2615059635
1.2637988908
1.2657961450
1.2674758865
1.2688253013
1.2698384075
1.2705134918
1.2708507481
1.2711988257
1.1263813157
1.1269407255
1.1269555415
1.1269878760
1.1270397118
1.1271135252
1.1272117685
1.1273361917
1.1274876146
1.1276655187
1.1278677372
1.1280905162
1.1283284686
1.1285747266
1.1288211904
1.1290587119
1.1292775941
1.1294679699
1.1296203155
1.1297264551
1.1297801728
1.1304674102
1.2237030615
1.2227951238
1.2227732938
1.2227381438
1.2227033305
1.2226888584
1.2227202711
1.2228274484
1.2230434218
1.2234028441
1.2239399086
1.2246876177
1.2256757369
1.2269293382
1.2284662666
1.2302957358
1.2324182025
1.2348241047
1.2374909426
1.2403809379
1.2434441819
1.2466212144
1.2498449817
1.2530443078
1.2561480717
1.2590894407
1.2618091174
1.2642585137
1.2664001561
1.2682077052
1.2696643560
1.2707607927
1.2714928178
1.2718589992
1.2721119516
1.1258365219
1.1262771824
1.1262973481
1.1263405664
1.1264092660
1.1265064805
1.1266352167
1.1267976575
1.1269948215
1.1272260614
1.1274886938
1.1277780323
1.1280873294
1.1284079305
1.1287295457
1.1290404510
1.1293280307
1.1295792511
1.1297813139
1.1299229052
1.1299951644
1.1308000350
1.2210096941
1.2201652723
1.2201596809
1.2201557994
1.2201665035
1.2202109463
1.2203137870
1.2205040198
1.2208137086
1.2212765256
1.2219247354
1.2227899047
1.2239001956
1.2252793923
1.2269450313
1.2289051996
1.2311599737
1.2337002932
1.2365044682
1.2395351531
1.2427443064
1.2460733358
1.2494554300
1.2528189526
1.2560912056
1.2592025200
1.2620901237
1.2647006515
1.2669916789
1.2689320115
1.2705004386
1.2716839557
1.2724755605
1.2728720195
1.2730169340
1.1253215010
1.1256489273
1.1256733451
1.1257252951
1.1258077846
1.1259245952
1.1260795267
1.1262754718
1.1265139460
1.1267944822
1.1271141871
1.1274677287
1.1278472461
1.1282424797
1.1286410341
1.1290285644
1.1293893154
1.1297066521
1.1299638252
1.1301454827
1.1302391017
1.1311510336
1.2182202182
1.2174289247
1.2174423114
1.2174743830
1.2175364898
1.2176463113
1.2178271207
1.2181066224
1.2185154879
1.2190860936
1.2198500437
1.2208371971
1.2220739885
1.2235823292
1.2253786334
1.2274713070
1.2298601662
1.2325361406
1.2354779343
1.2386492919
1.2420036808
1.2454839046
1.2490238279
1.2525516431
1.2559932305
1.2592761955
1.2623339534
1.2651084474
1.2675521020
1.2696286264
1.2713121217
1.2725855481
1.2734388501
1.2738667947
1.2738890539
1.1248430975
1.1250635640
1.1250913079
1.1251501716
1.1252438580
1.1253770673
1.1255546103
1.1257803494
1.1260565890
1.1263833556
1.1267578721
1.1271744808
1.1276245002
1.1280963031
1.1285755359
1.1290452386
1.1294863134
1.1298780226
1.1301987852
1.1304279113
1.1305475885
1.1315565812
1.2153505424
1.2146017418
1.2146377872
1.2147114731
1.2148314287
1.2150130792
1.2152778851
1.2156521003
1.2161649936
1.2168471270
1.2177298805
1.2188415415
1.2202069967
1.2218466048
1.2237750325
1.2260002123
1.2285222701
1.2313323781
1.2344095469
1.2377188319
1.2412157175
1.2448444622
1.2485399154
1.2522302571
1.2558401145
1.2592944782
1.2625229090
1.2654625916
1.2680606193
1.2702753464
1.2720759250
1.2734410654
1.2743574570
1.2748177249
1.2747009602
1.1244076416
1.1245279717
1.1245582945
1.1246226036
1.1247253994
1.1248724505
1.1250697762
1.1253224537
1.1256338613
1.1260048396
1.1264330755
1.1269129438
1.1274352970
1.1279874673
1.1285533985
1.1291136371
1.1296456212
1.1301239982
1.1305212651
1.1308095560
1.1309631663
1.1320602569
1.2124132523
1.2116967277
1.2117608589
1.2118837481
1.2120696627
1.2123307478
1.2126861251
1.2131604721
1.2137818372
1.2145796619
1.2155835293
1.2168205330
1.2183142154
1.2200836579
1.2221422216
1.2244965489
1.2271486346
1.2300891927
1.2332969118
1.2367394827
1.2403740641
1.2441466910
1.2479933679
1.2518424406
1.2556174579
1.2592408805
1.2626384595
1.2657425624
1.2684948261
1.2708480768
1.2727663263
1.2742238500
1.2752039357
1.2756969621
1.2754234311
1.1240211626
1.1240485438
1.1240808676
1.1241494888
1.1242597906
1.1244187405
1.1246337434
1.1249113202
1.1252562011
1.1256703660
1.1261523379
1.1266969305
1.1272949634
1.1279331852
1.1285942707
1.1292566127
1.1298942824
1.1304769306
1.1309699232
1.1313357521
1.1315367506
1.1327145015
1.2094159758
1.2087226337
1.2088239378
1.2090075178
1.2092709852
1.2096218689
1.2100762641
1.2106569820
1.2113907885
1.2123060099
1.2134309640
1.2147916083
1.2164104120
1.2183054672
1.2204892541
1.2229679668
1.2257433189
1.2288077826
1.2321394697
1.2357083832
1.2394737380
1.2433835217
1.2473749991
1.2513768381
1.2553116455
1.2590994773
1.2626623478
1.2659278225
1.2688320345
1.2713221888
1.2733570418
1.2749063188
1.2759498001
1.2764755747
1.2760268362
1.1236892887
1.1236311194
1.1236650119
1.1237371011
1.1238537229
1.1240231542
1.1242543414
1.1245554606
1.1249328602
1.1253899862
1.1259265933
1.1265384028
1.1272167339
1.1279483721
1.1287154261
1.1294948360
1.1302578568
1.1309692083
1.1315861231
1.1320584766
1.1323306395
1.1335837950
1.2063572412
1.2056798759
1.2058347017
1.2060972121
1.2064551155
1.2069097722
1.2074736640
1.2081676840
1.2090174754
1.2100506327
1.2112947474
1.2127750906
1.2145133616
1.2165271047
1.2188285191
1.2214236093
1.2243141832
1.2274930424
1.2309394855
1.2346255362
1.2385126283
1.2425506926
1.2466783395
1.2508246541
1.2549114422
1.2588564890
1.2625781975
1.2659994263
1.2690508545
1.2716740752
1.2738225707
1.2754614658
1.2765670200
1.2771250272
1.2764829445
1.1234172830
1.1232810645
1.1233162051
1.1233911416
1.1235132165
1.1236921039
1.1239384232
1.1242621921
1.1246716283
1.1251719589
1.1257645843
1.1264466535
1.1272106539
1.1280442131
1.1289299160
1.1298445068
1.1307577816
1.1316306399
1.1324122236
1.1330372046
1.1334242347
1.1347508311
1.2032183990
1.2025528324
1.2027915700
1.2031625096
1.2036399104
1.2042177240
1.2049047531
1.2057204043
1.2066898678
1.2078406265
1.2092003889
1.2107944478
1.2126442809
1.2147674016
1.2171761019
1.2198771555
1.2228720632
1.2261537203
1.2297035076
1.2334954389
1.2374931523
1.2416484993
1.2459014296
1.2501815262
1.2544098965
1.2585022167
1.2623734646
1.2659419811
1.2691331563
1.2718831038
1.2741401168
1.2758647829
1.2770299501
1.2776190999
1.2767671673
1.1232102748
1.1230035294
1.1230396726
1.1231169861
1.1232438536
1.1234314091
1.1236920437
1.1240377697
1.1244788891
1.1250227136
1.1256726750
1.1264279038
1.1272828262
1.1282269605
1.1292447419
1.1303147176
1.1314078598
1.1324844014
1.1334883535
1.1343397843
1.1349252994
1.1363287323
1.1999496441
1.1992967362
1.1996780228
1.2002057709
1.2008400587
1.2015680673
1.2023962336
1.2033439613
1.2044373142
1.2057049276
1.2071755787
1.2088756129
1.2108273061
1.2130483570
1.2155522392
1.2183464630
1.2214324991
1.2248036720
1.2284434336
1.2323282603
1.2364236524
1.2406833114
1.2450485206
1.2494493311
1.2538062612
1.2580330614
1.2620415401
1.2657458153
1.2690662893
1.2719338698
1.2742918837
1.2760965997
1.2773175593
1.2779359501
1.2768611406
1.1230730518
1.1228032741
1.1228402110
1.1229195030
1.1230505869
1.1232460854
1.1235202227
1.1238871043
1.1243592803
1.1249464020
1.1256542800
1.1264845219
1.1274342375
1.1284961287
1.1296581259
1.1309032985
1.1322081801
1.1335390292
1.1348442582
1.1360407130
1.1369904418
1.1384835491
1.1964451770
1.1958149718
1.1964560670
1.1972211756
1.1980678799
1.1989831276
1.1999756130
1.2010681464
1.2022902645
1.2036735984
1.2052495447
1.2070465559
1.2090887430
1.2113952904
1.2139804684
1.2168535208
1.2200160007
1.2234617772
1.2271772673
1.2311406410
1.2353193171
1.2396687435
1.2441313344
1.2486375983
1.2531075402
1.2574531980
1.2615835386
1.2654088727
1.2688450666
1.2718182574
1.2742672038
1.2761442038
1.2774156815
1.2780607057
1.2767551585
1.1230100395
1.1226846859
1.1227222116
1.1228030860
1.1229377827
1.1231404025
1.1234270076
1.1238138409
1.1243157701
1.1249449445
1.1257098604
1.1266149030
1.1276604718
1.1288433152
1.1301570296
1.1315917138
1.1331355326
1.1347721517
1.1364762287
1.1382009843
1.1398428246
1.1414529565
1.1924951329
1.1919161650
1.1930580654
1.1941982453
1.1953388121
1.1964894860
1.1976737302
1.1989249121
1.2002803549
1.2017775409
1.2034522264
1.2053363235
1.2074566901
1.2098350148
1.2124872419
1.2154239550
1.2186475175
1.2221527818
1.2259289854
1.2299559029
1.2342026832
1.2386261820
1.2431697977
1.2477643996
1.2523295433
1.2567757916
1.2610096785
1.2649382450
1.2684734369
1.2715372414
1.2740643936
1.2760038303
1.2773190098
1.2779872728
1.2764501713
1.1230254734
1.1226519711
1.1226898633
1.1227718777
1.1229094781
1.1231181837
1.1234158363
1.1238207944
1.1243502349
1.1250187794
1.1258379138
1.1268145796
1.1279526014
1.1292529641
1.1307147351
1.1323365503
1.1341179187
1.1360601151
1.1381665533
1.1404432797
1.1429024508
1.1451315686
1.1599838912
1.1642704754
1.1886249146
1.1886853822
1.1899083793
1.1913232933
1.1927494239
1.1941479287
1.1955357555
1.1969517475
1.1984408344
1.2000474047
1.2018128252
1.2037732600
1.2059592551
1.2083954847
1.2111003946
1.2140857279
1.2173553644
1.2209055837
1.2247278119
1.2288034647
1.2331029964
1.2375843948
1.2421917761
1.2468562428
1.2514969461
1.2560232438
1.2603397176
1.2643508019
1.2679653007
1.2711018389
1.2736920144
1.2756818414
1.2770324323
1.2777197079
1.2759588628
1.1231231250
1.1227089051
1.1227469140
1.1228295559
1.1229692055
1.1231826997
1.1234895418
1.1239101453
1.1244638582
1.1251675571
1.1260349660
1.1270762324
1.1282984811
1.1297068995
1.1313064834
1.1331043299
1.1351131168
1.1373560548
1.1398753855
1.1427496148
1.1461302863
1.1501758059
1.1588001397
1.1629693343
1.1784245261
1.1828128018
1.1858760216
1.1882361503
1.1902077049
1.1919555256
1.1935853686
1.1951781914
1.1968009882
1.1985110215
1.2003579429
1.2023836876
1.2046229473
1.2071038745
1.2098473384
1.2128678227
1.2161701071
1.2197517900
1.2236066127
1.2277170378
1.2320545383
1.2365778410
1.2412314690
1.2459465645
1.2506419237
1.2552259906
1.2596019468
1.2636723945
1.2673439268
1.2705327546
1.2731684733
1.2751947112
1.2765710539
1.2772723396
1.2753052760
1.1233062261
1.1228587749
1.1228966263
1.1229793179
1.1231200281
1.1233367948
1.1236505745
1.1240834411
1.1246565961
1.1253890096
1.1262965841
1.1273920435
1.1286853316
1.1301851359
1.1319008477
1.1338451377
1.1360380086
1.1385119243
1.1413194668
1.1445459728
1.1483297206
1.1528462656
1.1593827981
1.1649147027
1.1741854504
1.1791466220
1.1828151856
1.1856788171
1.1880318994
1.1900628119
1.1919031062
1.1936536309
1.1953955268
1.1971960395
1.1991121011
1.2011910248
1.2034716019
1.2059850303
1.2087553045
1.2117985829
1.2151215365
1.2187239129
1.2225996089
1.2267323983
1.2310942474
1.2356442336
1.2403269102
1.2450732706
1.2498017563
1.2544202213
1.2588310564
1.2629359038
1.2666401277
1.2698590089
1.2725207595
1.2745678714
1.2759591134
1.2766687407
1.2745230662
1.1235775871
1.1231045006
1.1231419046
1.1232240209
1.1233646921
1.1235828726
1.1239007087
1.1243416120
1.1249283428
1.1256814993
1.1266188237
1.1277550127
1.1291021419
1.1306713233
1.1324745360
1.1345270854
1.1368512038
1.1394797860
1.1424607919
1.1458626187
1.1497784974
1.1543114027
1.1598568158
1.1653159926
1.1719666019
1.1767832898
1.1806131698
1.1837194700
1.1863074140
1.1885376362
1.1905378183
1.1924130516
1.1942506381
1.1961237353
1.1980943151
1.2002139346
1.2025247356
1.2050606976
1.2078478183
1.2109041147
1.2142386794
1.2178527066
1.2217400240
1.2258846175
1.2302588146
1.2348214472
1.2395167587
1.2442753769
1.2490154222
1.2536444752
1.2580647924
1.2621778945
1.2658894395
1.2691146666
1.2717816404
1.2738329882
1.2752274365
1.2759392317
1.2736521064
1.1239393618
1.1234484075
1.1234850579
1.1235658988
1.1237052488
1.1239227298
1.1242413359
1.1246854595
1.1252789818
1.1260436927
1.1269986498
1.1281599024
1.1295409217
1.1311541841
1.1330128203
1.1351327306
1.1375355056
1.1402506801
1.1433173525
1.1467845889
1.1507074806
1.1551301916
1.1601437898
1.1652732846
1.1707409290
1.1753044721
1.1791319034
1.1823381789
1.1850546993
1.1874088366
1.1895157293
1.1914776559
1.1933832251
1.1953082816
1.1973177332
1.1994658238
1.2017971133
1.2043474699
1.2071445719
1.2102076701
1.2135473048
1.2171658943
1.2210575103
1.2252056815
1.2295817882
1.2341442764
1.2388367385
1.2435892422
1.2483196221
1.2529355423
1.2573397912
1.2614350490
1.2651279467
1.2683350343
1.2709858626
1.2730242321
1.2744097638
1.2751172793
1.2727340036
1.1243930210
1.1238921879
1.1239277509
1.1240065505
1.1241431826
1.1243576663
1.1246734812
1.1251156038
1.1257085617
1.1264748464
1.1274342550
1.1286035734
1.1299969519
1.1316273883
1.1335082019
1.1356548553
1.1380874004
1.1408318201
1.1439201285
1.1473885303
1.1512704087
1.1555796042
1.1603128028
1.1651890720
1.1701323229
1.1745021461
1.1782783010
1.1815057613
1.1842737850
1.1866868354
1.1888490500
1.1908583518
1.1928024135
1.1947576272
1.1967900031
1.1989550363
1.2012984007
1.2038570256
1.2066593965
1.2097256285
1.2130669579
1.2166861621