<VTKFile type="UnstructuredGrid" version="0.1">
	<UnstructuredGrid>
		<Piece NumberOfPoints="13548" NumberOfCells="3387">
			<CellData>
				<DataArray type="Int32" Name="ghost" NumberOfComponents="1" Format="ascii">
1
1
1
1
1
1
1
1
1
1
1
1
1
1
1
1
1
1
1
1
1
1
1
1
1
1
1
1
1
1
1
1
1
1
1
1
1
1
1
1
1
1
1
1
1
1
1
1
1
1
1
1
1
1
1
1
1
1
0
0
0
0
0
0
0
0
0
0
0
0
0
0
0
0
0
0
0
0
1
1
0
0
0
0
0
0
0
0
0
0
0
0
0
0
0
0
0
0
0
0
0
0
0
0
0
0
0
0
0
0
0
0
0
1
1
0
0
0
0
0
0
0
0
0
0
0
0
0
0
0
0
0
0
0
0
1
1
0
0
0
0
0
0
0
0
0
0
0
0
0
0
0
0
0
0
0
0
0
0
0
0
0
0
0
0
0
0
0
0
0
1
1
0
0
0
0
0
0
0
0
0
0
0
0
0
0
0
0
0
0
0
0
1
1
0
0
0
0
0
0
0
0
0
0
0
0
0
0
0
0
0
0
0
0
0
0
0
0
0
0
0
0
0
0
0
0
0
1
1
0
0
0
0
0
0
0
0
0
0
0
0
0
0
0
0
0
0
0
0
1
1
0
0
0
0
0
0
0
0
0
0
0
0
0
0
0
0
0
0
0
0
0
0
0
0
0
0
0
0
0
0
0
0
0
1
1
0
0
0
0
0
0
0
0
0
0
0
0
0
0
0
0
0
0
0
0
1
1
0
0
0
0
0
0
0
0
0
0
0
0
0
0
0
0
0
0
0
0
0
0
0
0
0
0
0
0
0
0
0
0
0
1
1
0
0
0
0
0
0
0
0
0
0
0
0
0
0
0
0
0
0
0
0
1
1
0
0
0
0
0
0
0
0
0
0
0
0
0
0
0
0
0
0
0
0
0
0
0
0
0
0
0
0
0
0
0
0
0
1
1
0
0
0
0
0
0
0
0
0
0
0
0
0
0
0
0
0
0
0
0
1
1
0
0
0
0
0
0
0
0
0
0
0
0
0
0
0
0
0
0
0
0
0
0
0
0
0
0
0
0
0
0
0
0
0
1
1
0
0
0
0
0
0
0
0
0
0
0
0
0
0
0
0
0
0
0
0
1
1
0
0
0
0
0
0
0
0
0
0
0
0
0
0
0
0
0
0
0
0
0
0
0
0
0
0
0
0
0
0
0
0
0
1
1
0
0
0
0
0
0
0
0
0
0
0
0
0
0
0
0
0
0
0
0
1
1
0
0
0
0
0
0
0
0
0
0
0
0
0
0
0
0
0
0
0
0
0
0
0
0
0
0
0
0
0
0
0
0
0
1
1
0
0
0
0
0
0
0
0
0
0
0
0
0
0
0
0
0
0
0
0
1
1
0
0
0
0
0
0
0
0
0
0
0
0
0
0
0
0
0
0
0
0
0
0
0
0
0
0
0
0
0
0
0
0
0
1
1
0
0
0
0
0
0
0
0
0
0
0
0
0
0
0
0
0
0
0
0
1
1
0
0
0
0
0
0
0
0
0
0
0
0
0
0
0
0
0
0
0
0
0
0
0
0
0
0
0
0
0
0
0
0
0
1
1
0
0
0
0
0
0
0
0
0
0
0
0
0
0
0
0
0
0
0
0
1
1
0
0
0
0
0
0
0
0
0
0
0
0
0
0
0
0
0
0
0
0
0
0
0
0
0
0
0
0
0
0
0
0
0
1
1
0
0
0
0
0
0
0
0
0
0
0
0
0
0
0
0
0
0
0
0
1
1
0
0
0
0
0
0
0
0
0
0
0
0
0
0
0
0
0
0
0
0
0
0
0
0
0
0
0
0
0
0
0
0
0
1
1
0
0
0
0
0
0
0
0
0
0
0
0
0
0
0
0
0
0
0
0
1
1
0
0
0
0
0
0
0
0
0
0
0
0
0
0
0
0
0
0
0
0
0
0
0
0
0
0
0
0
0
0
0
0
0
1
1
0
0
0
0
0
0
0
0
0
0
0
0
0
0
0
0
0
0
0
0
1
1
0
0
0
0
0
0
0
0
0
0
0
0
0
0
0
0
0
0
0
0
0
0
0
0
0
0
0
0
0
0
0
0
0
1
1
0
0
0
0
0
0
0
0
0
0
0
0
0
0
0
0
0
0
0
0
1
1
0
0
0
0
0
0
0
0
0
0
0
0
0
0
0
0
0
0
0
0
0
0
0
0
0
0
0
0
0
0
0
0
0
1
1
0
0
0
0
0
0
0
0
0
0
0
0
0
0
0
0
0
0
0
0
1
1
0
0
0
0
0
0
0
0
0
0
0
0
0
0
0
0
0
0
0
0
0
0
0
0
0
0
0
0
0
0
0
0
0
1
1
0
0
0
0
0
0
0
0
0
0
0
0
0
0
0
0
0
0
0
0
1
1
0
0
0
0
0
0
0
0
0
0
0
0
0
0
0
0
0
0
0
0
0
0
0
0
0
0
0
0
0
0
0
0
0
1
1
0
0
0
0
0
0
0
0
0
0
0
0
0
0
0
0
0
0
0
0
1
1
0
0
0
0
0
0
0
0
0
0
0
0
0
0
0
0
0
0
0
0
0
0
0
0
0
0
0
0
0
0
0
0
0
1
1
0
0
0
0
0
0
0
0
0
0
0
0
0
0
0
0
0
0
0
0
1
1
0
0
0
0
0
0
0
0
0
0
0
0
0
0
0
0
0
0
0
0
0
0
0
0
0
0
0
0
0
0
0
0
0
1
1
0
0
0
0
0
0
0
0
0
0
0
0
0
0
0
0
0
0
0
0
1
1
0
0
0
0
0
0
0
0
0
0
0
0
0
0
0
0
0
0
0
0
0
0
0
0
0
0
0
0
0
0
0
0
0
1
1
0
0
0
0
0
0
0
0
0
0
0
0
0
0
0
0
0
0
0
0
1
1
0
0
0
0
0
0
0
0
0
0
0
0
0
0
0
0
0
0
0
0
0
0
0
0
0
0
0
0
0
0
0
0
0
1
1
0
0
0
0
0
0
0
0
0
0
0
0
0
0
0
0
0
0
0
0
1
1
0
0
0
0
0
0
0
0
0
0
0
0
0
0
0
0
0
0
0
0
0
0
0
0
0
0
0
0
0
0
0
0
0
1
1
0
0
0
0
0
0
0
0
0
0
0
0
0
0
0
0
0
0
0
0
1
1
0
0
0
0
0
0
0
0
0
0
0
0
0
0
0
0
0
0
0
0
0
0
0
0
0
0
0
0
0
0
0
0
0
1
1
0
0
0
0
0
0
0
0
0
0
0
0
0
0
0
0
0
0
0
0
0
1
1
0
0
0
0
0
0
0
0
0
0
0
0
0
0
0
0
0
0
0
0
0
0
0
0
0
0
0
0
0
0
0
0
0
0
1
1
0
0
0
0
0
0
0
0
0
0
0
0
0
0
0
0
0
0
0
0
0
0
0
0
0
0
0
0
0
0
0
0
0
0
0
0
0
0
0
0
0
0
0
0
0
0
0
0
0
0
0
0
0
0
0
0
0
1
1
0
0
0
0
0
0
0
0
0
0
0
0
0
0
0
0
0
0
0
0
0
0
0
0
0
0
0
0
0
0
0
0
0
0
0
0
0
0
0
0
0
0
0
0
0
0
0
0
0
0
0
0
0
0
0
0
0
1
1
0
0
0
0
0
0
0
0
0
0
0
0
0
0
0
0
0
0
0
0
0
0
0
0
0
0
0
0
0
0
0
0
0
0
0
0
0
0
0
0
0
0
0
0
0
0
0
0
0
0
0
0
0
0
0
0
0
1
1
0
0
0
0
0
0
0
0
0
0
0
0
0
0
0
0
0
0
0
0
0
0
0
0
0
0
0
0
0
0
0
0
0
0
0
0
0
0
0
0
0
0
0
0
0
0
0
0
0
0
0
0
0
0
0
0
0
1
1
0
0
0
0
0
0
0
0
0
0
0
0
0
0
0
0
0
0
0
0
0
0
0
0
0
0
0
0
0
0
0
0
0
0
0
0
0
0
0
0
0
0
0
0
0
0
0
0
0
0
0
0
0
0
0
0
0
1
1
0
0
0
0
0
0
0
0
0
0
0
0
0
0
0
0
0
0
0
0
0
0
0
0
0
0
0
0
0
0
0
0
0
0
0
0
0
0
0
0
0
0
0
0
0
0
0
0
0
0
0
0
0
0
0
0
0
1
1
0
0
0
0
0
0
0
0
0
0
0
0
0
0
0
0
0
0
0
0
0
0
0
0
0
0
0
0
0
0
0
0
0
0
0
0
0
0
0
0
0
0
0
0
0
0
0
0
0
0
0
0
0
0
0
0
0
1
1
0
0
0
0
0
0
0
0
0
0
0
0
0
0
0
0
0
0
0
0
0
0
0
0
0
0
0
0
0
0
0
0
0
0
0
0
0
0
0
0
0
0
0
0
0
0
0
0
0
0
0
0
0
0
0
0
0
1
1
0
0
0
0
0
0
0
0
0
0
0
0
0
0
0
0
0
0
0
0
0
0
0
0
0
0
0
0
0
0
0
0
0
0
0
0
0
0
0
0
0
0
0
0
0
0
0
0
0
0
0
0
0
0
0
0
0
1
1
0
0
0
0
0
0
0
0
0
0
0
0
0
0
0
0
0
0
0
0
0
0
0
0
0
0
0
0
0
0
0
0
0
0
0
0
0
0
0
0
0
0
0
0
0
0
0
0
0
0
0
0
0
0
0
0
0
1
1
0
0
0
0
0
0
0
0
0
0
0
0
0
0
0
0
0
0
0
0
0
1
1
0
0
0
0
0
0
0
0
0
0
0
0
0
0
0
0
0
0
0
0
0
0
0
0
0
0
0
0
0
0
0
0
0
0
1
1
0
0
0
0
0
0
0
0
0
0
0
0
0
0
0
0
0
0
0
0
1
1
0
0
0
0
0
0
0
0
0
0
0
0
0
0
0
0
0
0
0
0
0
0
0
0
0
0
0
0
0
0
0
0
0
1
1
0
0
0
0
0
0
0
0
0
0
0
0
0
0
0
0
0
0
0
0
1
1
0
0
0
0
0
0
0
0
0
0
0
0
0
0
0
0
0
0
0
0
0
0
0
0
0
0
0
0
0
0
0
0
0
1
1
0
0
0
0
0
0
0
0
0
0
0
0
0
0
0
0
0
0
0
0
1
1
0
0
0
0
0
0
0
0
0
0
0
0
0
0
0
0
0
0
0
0
0
0
0
0
0
0
0
0
0
0
0
0
0
1
1
0
0
0
0
0
0
0
0
0
0
0
0
0
0
0
0
0
0
0
0
1
1
0
0
0
0
0
0
0
0
0
0
0
0
0
0
0
0
0
0
0
0
0
0
0
0
0
0
0
0
0
0
0
0
0
1
1
0
0
0
0
0
0
0
0
0
0
0
0
0
0
0
0
0
0
0
0
1
1
0
0
0
0
0
0
0
0
0
0
0
0
0
0
0
0
0
0
0
0
0
0
0
0
0
0
0
0
0
0
0
0
0
1
1
0
0
0
0
0
0
0
0
0
0
0
0
0
0
0
0
0
0
0
0
1
1
0
0
0
0
0
0
0
0
0
0
0
0
0
0
0
0
0
0
0
0
0
0
0
0
0
0
0
0
0
0
0
0
0
1
1
0
0
0
0
0
0
0
0
0
0
0
0
0
0
0
0
0
0
0
0
1
1
0
0
0
0
0
0
0
0
0
0
0
0
0
0
0
0
0
0
0
0
0
0
0
0
0
0
0
0
0
0
0
0
0
1
1
0
0
0
0
0
0
0
0
0
0
0
0
0
0
0
0
0
0
0
0
1
1
0
0
0
0
0
0
0
0
0
0
0
0
0
0
0
0
0
0
0
0
0
0
0
0
0
0
0
0
0
0
0
0
0
1
1
0
0
0
0
0
0
0
0
0
0
0
0
0
0
0
0
0
0
0
0
1
1
0
0
0
0
0
0
0
0
0
0
0
0
0
0
0
0
0
0
0
0
0
0
0
0
0
0
0
0
0
0
0
0
0
1
1
0
0
0
0
0
0
0
0
0
0
0
0
0
0
0
0
0
0
0
0
1
1
0
0
0
0
0
0
0
0
0
0
0
0
0
0
0
0
0
0
0
0
0
0
0
0
0
0
0
0
0
0
0
0
0
1
1
0
0
0
0
0
0
0
0
0
0
0
0
0
0
0
0
0
0
0
0
1
1
0
0
0
0
0
0
0
0
0
0
0
0
0
0
0
0
0
0
0
0
0
0
0
0
0
0
0
0
0
0
0
0
0
1
1
0
0
0
0
0
0
0
0
0
0
0
0
0
0
0
0
0
0
0
0
1
1
0
0
0
0
0
0
0
0
0
0
0
0
0
0
0
0
0
0
0
0
0
0
0
0
0
0
0
0
0
0
0
0
0
1
1
0
0
0
0
0
0
0
0
0
0
0
0
0
0
0
0
0
0
0
0
1
1
0
0
0
0
0
0
0
0
0
0
0
0
0
0
0
0
0
0
0
0
0
0
0
0
0
0
0
0
0
0
0
0
0
1
1
0
0
0
0
0
0
0
0
0
0
0
0
0
0
0
0
0
0
0
0
1
1
0
0
0
0
0
0
0
0
0
0
0
0
0
0
0
0
0
0
0
0
0
0
0
0
0
0
0
0
0
0
0
0
0
1
1
0
0
0
0
0
0
0
0
0
0
0
0
0
0
0
0
0
0
0
0
1
1
0
0
0
0
0
0
0
0
0
0
0
0
0
0
0
0
0
0
0
0
0
0
0
0
0
0
0
0
0
0
0
0
0
1
1
0
0
0
0
0
0
0
0
0
0
0
0
0
0
0
0
0
0
0
0
1
1
0
0
0
0
0
0
0
0
0
0
0
0
0
0
0
0
0
0
0
0
0
0
0
0
0
0
0
0
0
0
0
0
0
1
1
0
0
0
0
0
0
0
0
0
0
0
0
0
0
0
0
0
0
0
0
1
1
0
0
0
0
0
0
0
0
0
0
0
0
0
0
0
0
0
0
0
0
0
0
0
0
0
0
0
0
0
0
0
0
0
1
1
0
0
0
0
0
0
0
0
0
0
0
0
0
0
0
0
0
0
0
0
1
1
0
0
0
0
0
0
0
0
0
0
0
0
0
0
0
0
0
0
0
0
0
0
0
0
0
0
0
0
0
0
0
0
0
1
1
0
0
0
0
0
0
0
0
0
0
0
0
0
0
0
0
0
0
0
0
1
1
0
0
0
0
0
0
0
0
0
0
0
0
0
0
0
0
0
0
0
0
0
0
0
0
0
0
0
0
0
0
0
0
0
1
1
0
0
0
0
0
0
0
0
0
0
0
0
0
0
0
0
0
0
0
0
1
1
0
0
0
0
0
0
0
0
0
0
0
0
0
0
0
0
0
0
0
0
0
0
0
0
0
0
0
0
0
0
0
0
0
1
1
0
0
0
0
0
0
0
0
0
0
0
0
0
0
0
0
0
0
0
0
1
1
0
0
0
0
0
0
0
0
0
0
0
0
0
0
0
0
0
0
0
0
0
0
0
0
0
0
0
0
0
0
0
0
0
1
1
1
1
1
1
1
1
1
1
1
1
1
1
1
1
1
1
1
1
1
1
1
1
1
1
1
1
1
1
1
1
1
1
1
1
1
1
1
1
1
1
1
1
1
1
1
1
1
1
1
1
1
1
1
1
1
1
				</DataArray>
				<DataArray type="Float64" Name="h" NumberOfComponents="1" Format="ascii">
1.1555537558
1.1547938409
1.1547471780
1.1546543293
1.1545167318
1.1543365547
1.1541167771
1.1538613046
1.1535749262
1.1532633907
1.1529334122
1.1525925535
1.1522491612
1.1519121380
1.1515906742
1.1512939910
1.1510309163
1.1508095480
1.1506369335
1.1505186410
1.1504585542
1.1504585542
1.1944905261
1.1948129675
1.1951433579
1.1958089263
1.1967863842
1.1980437825
1.1995433880
1.2012441885
1.2031055735
1.2050892362
1.2071602136
1.2092881554
1.2114470545
1.2136147894
1.2157728348
1.2179052744
1.2199983044
1.2220397489
1.2240183901
1.2259240174
1.2277469723
1.2294779792
1.2311085490
1.2326307305
1.2340370119
1.2353208367
1.2364762735
1.2374979190
1.2383813740
1.2391228285
1.2397189675
1.2401674150
1.2404662852
1.2406141239
1.2406141239
1.1547938409
1.1540008290
1.1539632862
1.1538884046
1.1537771184
1.1536308643
1.1534516829
1.1532423652
1.1530064439
1.1527483060
1.1524732456
1.1521873943
1.1518977015
1.1516117531
1.1513375418
1.1510832355
1.1508567699
1.1506655196
1.1505159704
1.1504132814
1.1503610701
1.1504585542
1.1948129675
1.1951963027
1.1954980381
1.1961091332
1.1970098756
1.1981730962
1.1995665878
1.2011551090
1.2029036166
1.2047787946
1.2067498180
1.2087894720
1.2108738498
1.2129819418
1.2150954596
1.2171980041
1.2192747331
1.2213120312
1.2232969903
1.2252175643
1.2270622204
1.2288198705
1.2304803285
1.2320341032
1.2334723219
1.2347872684
1.2359720560
1.2370205190
1.2379276808
1.2386893115
1.2393018054
1.2397626039
1.2400697134
1.2402216204
1.2406141239
1.1545789812
1.1537976571
1.1537603227
1.1536858531
1.1535751704
1.1534296948
1.1532514437
1.1530431783
1.1528083964
1.1525514464
1.1522775801
1.1519928882
1.1517042826
1.1514193173
1.1511459618
1.1508923704
1.1506664759
1.1504756581
1.1503264144
1.1502239184
1.1501717999
1.1502501606
1.1948515552
1.1952390054
1.1955427906
1.1961579355
1.1970645962
1.1982354182
1.1996379606
1.2012367079
1.2029963130
1.2048831365
1.2068660220
1.2089174285
1.2110131380
1.2131318552
1.2152550414
1.2173660898
1.2194499964
1.2214930334
1.2234822427
1.2254055373
1.2272513755
1.2290087634
1.2306676696
1.2322187982
1.2336534997
1.2349642987
1.2361445588
1.2371883683
1.2380909986
1.2388484522
1.2394573320
1.2399152568
1.2402203723
1.2403712607
1.2407575946
1.1541509400
1.1533926436
1.1533556981
1.1532819969
1.1531724402
1.1530284151
1.1528518944
1.1526455829
1.1524129118
1.1521581540
1.1518864839
1.1516039141
1.1513172854
1.1510340941
1.1507622678
1.1505099396
1.1502850399
1.1500949642
1.1499462366
1.1498440615
1.1497920948
1.1498327072
1.1949143780
1.1953102354
1.1956184292
1.1962422687
1.1971616131
1.1983486907
1.1997705388
1.2013910332
1.2031741579
1.2050855688
1.2070933953
1.2091694022
1.2112887187
1.2134294605
1.2155725837
1.2177010695
1.2197996048
1.2218542640
1.2238520184
1.2257807616
1.2276290225
1.2293860075
1.2310419834
1.2325880317
1.2340159351
1.2353186882
1.2364901451
1.2375248905
1.2384186822
1.2391679796
1.2397697972
1.2402221034
1.2405233188
1.2406722151
1.2410466162
1.1535139352
1.1527894926
1.1527530553
1.1526803593
1.1525722740
1.1524301402
1.1522558691
1.1520520879
1.1518221351
1.1515701833
1.1513012985
1.1510213903
1.1507372067
1.1504561694
1.1501861579
1.1499352849
1.1497114910
1.1495222047
1.1493739992
1.1492721327
1.1492203055
1.1492054269
1.1950040071
1.1954126225
1.1957275366
1.1963646152
1.1973032599
1.1985150575
1.1999662416
1.2016197520
1.2034385445
1.2053871935
1.2074327359
1.2095458780
1.2117007591
1.2138746087
1.2160476268
1.2182021848
1.2203225212
1.2223944344
1.2244048169
1.2263415414
1.2281933202
1.2299496707
1.2316013039
1.2331398568
1.2345577497
1.2358486705
1.2370071949
1.2380286358
1.2389094614
1.2396467988
1.2402382637
1.2406823358
1.2409778369
1.2411238160
1.2414814969
1.1526742914
1.1519937757
1.1519578799
1.1518862554
1.1517797358
1.1516396078
1.1514677104
1.1512665783
1.1510394451
1.1507903633
1.1505242784
1.1502469839
1.1499651266
1.1496860542
1.1494176041
1.1491678867
1.1489448751
1.1487560623
1.1486081022
1.1485063379
1.1484545389
1.1483677817
1.1951234904
1.1955493099
1.1958732027
1.1965279460
1.1974923301
1.1987370818
1.2002273564
1.2019248365
1.2037910961
1.2057892554
1.2078848843
1.2100472708
1.2122492331
1.2144668227
1.2166792423
1.2188680653
1.2210169564
1.2231113797
1.2251381344
1.2270850975
1.2289412662
1.2306966170
1.2323424440
1.2338711148
1.2352758855
1.2365513502
1.2376930241
1.2386971632
1.2395611526
1.2402829778
1.2408610271
1.2412944361
1.2415825418
1.2417247489
1.2420623575
1.1516406767
1.1510131744
1.1509777495
1.1509070557
1.1508018910
1.1506634876
1.1504936083
1.1502946957
1.1500698709
1.1498230691
1.1495591146
1.1492836876
1.1490033461
1.1487253776
1.1484576047
1.1482081638
1.1479851041
1.1477960222
1.1476476991
1.1475456034
1.1474936069
1.1473204649
1.1952760883
1.1957236839
1.1960587522
1.1967354472
1.1977317994
1.1990174656
1.2005562553
1.2023082790
1.2042333791
1.2062928528
1.2084504318
1.2106736305
1.2129336198
1.2152049908
1.2174657179
1.2196964057
1.2218800455
1.2240016979
1.2260481062
1.2280071737
1.2298683064
1.2316220743
1.2332605352
1.2347769473
1.2361655919
1.2374221669
1.2385433263
1.2395264640
1.2403700642
1.2410731378
1.2416349930
1.2420555447
1.2423347416
1.2424724103
1.2427884591
1.1504243993
1.1498578024
1.1498226627
1.1497525319
1.1496481772
1.1495107815
1.1493420440
1.1491443198
1.1489206345
1.1486748192
1.1484115927
1.1481365494
1.1478561795
1.1475777503
1.1473091046
1.1470584605
1.1468339848
1.1466434475
1.1464938053
1.1463907071
1.1463381645
1.1460665568
1.1954657545
1.1959398386
1.1962882001
1.1969909551
1.1980252351
1.1993594253
1.2009557297
1.2027723785
1.2047671380
1.2068991161
1.2091298389
1.2114246959
1.2137528921
1.2160872863
1.2184044108
1.2206837592
1.2229075478
1.2250603988
1.2271290778
1.2291015542
1.2309677756
1.2327190455
1.2343483655
1.2358500771
1.2372196528
1.2384540747
1.2395513122
1.2405100644
1.2413300688
1.2420114989
1.2425547012
1.2429604675
1.2432294330
1.2433618986
1.2436571456
1.1490394166
1.1485402338
1.1485050782
1.1484349169
1.1483304948
1.1481929643
1.1480239775
1.1478258314
1.1476014824
1.1473546865
1.1470901010
1.1468132612
1.1465306464
1.1462495404
1.1459778691
1.1457239820
1.1454962476
1.1453026466
1.1451504054
1.1450454113
1.1449918596
1.1446126708
1.1956960144
1.1962014472
1.1965651310
1.1972978550
1.1983757222
1.1997656543
1.2014279991
1.2033188038
1.2053934166
1.2076083915
1.2099226824
1.2122992060
1.2147048902
1.2171106032
1.2194912453
1.2218250632
1.2240934292
1.2262805300
1.2283732594
1.2303597459
1.2322306018
1.2339780227
1.2355961338
1.2370805529
1.2384281265
1.2396372737
1.2407074292
1.2416387344
1.2424323001
1.2430895651
1.2436120003
1.2440013412
1.2442589608
1.2443856691
1.2446634046
1.1475026299
1.1470758353
1.1470402604
1.1469692714
1.1468636122
1.1467244279
1.1465533599
1.1463526862
1.1461253356
1.1458750477
1.1456064512
1.1453250986
1.1450374917
1.1447510029
1.1444736919
1.1442141096
1.1439808758
1.1437823045
1.1436259191
1.1435179341
1.1434628059
1.1429703662
1.1959696093
1.1965113877
1.1968923226
1.1976587016
1.1987854815
1.2002379409
1.2019743281
1.2039482096
1.2061121735
1.2084198532
1.2108272632
1.2132945014
1.2157859153
1.2182701409
1.2207202695
1.2231131927
1.2254294034
1.2276526947
1.2297702432
1.2317704622
1.2336447789
1.2353864485
1.2369908979
1.2384552111
1.2397777872
1.2409586333
1.2419987673
1.2428998751
1.2436645230
1.2442954796
1.2447953888
1.2451669643
1.2454123407
1.2455328531
1.2457990646
1.1458339387
1.1454828864
1.1454464086
1.1453736405
1.1452653506
1.1451227155
1.1449474143
1.1447417565
1.1445087139
1.1442520546
1.1439764710
1.1436875604
1.1433919352
1.1430970986
1.1428112919
1.1425433399
1.1423021722
1.1420964517
1.1419342071
1.1418219934
1.1417646271
1.1411570459
1.1962889661
1.1968721859
1.1972721759
1.1980756265
1.1992562481
1.2007775113
1.2025953300
1.2046604945
1.2069224887
1.2093316544
1.2118406965
1.2144065510
1.2169906906
1.2195592916
1.2220834825
1.2245387282
1.2269046539
1.2291648611
1.2313066276
1.2333192171
1.2351949120
1.2369282170
1.2385160478
1.2399571304
1.2412515805
1.2424011276
1.2434084731
1.2442769123
1.2450105077
1.2456133801
1.2460893553
1.2464421238
1.2466745770
1.2467885711
1.2470519535
1.1440559803
1.1437823780
1.1437444705
1.1436688897
1.1435564610
1.1434084447
1.1432266141
1.1430133893
1.1427718444
1.1425058766
1.1422202771
1.1419207914
1.1416141648
1.1413080727
1.1410110070
1.1407320103
1.1404804447
1.1402654528
1.1400952391
1.1399773807
1.1399170915
1.1391974540
1.1966551652
1.1972849662
1.1977056695
1.1985493070
1.1997882675
1.2013840657
1.2032900545
1.2054539504
1.2078217809
1.2103402151
1.2129582732
1.2156293855
1.2183118645
1.2209692184
1.2235704935
1.2260896989
1.2285056570
1.2308021292
1.2329660204
1.2349883601
1.2368623074
1.2385838145
1.2401514788
1.2415658357
1.2428288606
1.2439441141
1.2449160500
1.2457496078
1.2464503452
1.2470237146
1.2474746918
1.2478079056
1.2480269697
1.2481342369
1.2484060054
1.1421940627
1.1419980117
1.1419581504
1.1418787285
1.1417606755
1.1416053893
1.1414148208
1.1411915724
1.1409389257
1.1406609656
1.1403626862
1.1400500023
1.1397298357
1.1394100722
1.1390993291
1.1388070932
1.1385426129
1.1383162351
1.1381375193
1.1380136553
1.1379502231
1.1371260154
1.1970676588
1.1977491410
1.1981920380
1.1990786319
1.2003799537
1.2020554390
1.2040556568
1.2063249436
1.2088055010
1.2114399276
1.2141731722
1.2169548159
1.2197397378
1.2224885978
1.2251682801
1.2277513628
1.2302160075
1.2325461069
1.2347291063
1.2367570361
1.2386249616
1.2403303435
1.2418736469
1.2432573795
1.2444854933
1.2455634544
1.2464975051
1.2472942220
1.2479606185
1.2485034161
1.2489286675
1.2492418660
1.2494472842
1.2495477268
1.2498412266
1.1402756691
1.1401557750
1.1401134834
1.1400292975
1.1399042950
1.1397400917
1.1395388915
1.1393035905
1.1390377557
1.1387457652
1.1384328762
1.1381051962
1.1377698593
1.1374348045
1.1371088097
1.1368013795
1.1365241427
1.1362867667
1.1360984107
1.1359673797
1.1359000654
1.1349810813
1.1975247513
1.1982628602
1.1987291886
1.1996610777
1.2010282310
1.2027879149
1.2048876917
1.2072681895
1.2098673847
1.2126233808
1.2154766546
1.2183725963
1.2212623987
1.2241037294
1.2268612803
1.2295062762
1.2320163215
1.2343758635
1.2365730907
1.2386014927
1.2404578269
1.2421418122
1.2436559030
1.2450047057
1.2461942425
1.2472319239
1.2481257710
1.2488839510
1.2495148491
1.2500263526
1.2504254809
1.2507184833
1.2509102010
1.2510038268
1.2513339482
1.1383297683
1.1382833040
1.1382382060
1.1381485308
1.1380155696
1.1378412266
1.1376280738
1.1373793876
1.1370991438
1.1367921026
1.1364637958
1.1361206256
1.1357697409
1.1354190135
1.1350778601
1.1347574864
1.1344674058
1.1342177574
1.1340187265
1.1338795753
1.1338077567
1.1328076025
1.1980226814
1.1988220744
1.1993127307
1.2002917179
1.2017275601
1.2035753093
1.2057792831
1.2082760261
1.2109988370
1.2138808595
1.2168576789
1.2198701572
1.2228655730
1.2257985003
1.2286314648
1.2313344790
1.2338848319
1.2362678997
1.2384730519
1.2404953442
1.2423337196
1.2439901764
1.2454696139
1.2467788591
1.2479260497
1.2489205372
1.2497720719
1.2504903179
1.2510849073
1.2515647507
1.2519376888
1.2522105893
1.2523887478
1.2524756657
1.2528580930
1.1363863032
1.1364094183
1.1363612794
1.1362656812
1.1361241867
1.1359390951
1.1357134335
1.1354510064
1.1351562941
1.1348344929
1.1344915714
1.1341339888
1.1337688111
1.1334048716
1.1330523124
1.1327199030
1.1324175646
1.1321558958
1.1319457124
1.1317974649
1.1317202676
1.1306549662
1.1985553748
1.1994202630
1.1999356058
1.2009627703
1.2024694595
1.2044085212
1.2067207385
1.2093381040
1.2121886993
1.2152001823
1.2183028011
1.2214325584
1.2245326269
1.2275544518
1.2304585045
1.2332138041
1.2357976896
1.2381967752
1.2404020970
1.2424106675
1.2442237765
1.2458460949
1.2472850633
1.2485499464
1.2496510482
1.2505996109
1.2514070145
1.2520842864
1.2526421394
1.2530903304
1.2534373463
1.2536905112
1.2538554422
1.2539358564
1.2543862132
1.1344752379
1.1345631934
1.1345119535
1.1344103453
1.1342602845
1.1340645462
1.1338267723
1.1335513820
1.1332434912
1.1329089164
1.1325538371
1.1321848577
1.1318099691
1.1314383902
1.1310776890
1.1307365543
1.1304245563
1.1301520406
1.1299302891
1.1297713534
1.1296871150
1.1285740965
1.1991148312
1.2000488063
1.2005882364
1.2016635664
1.2032424136
1.2052754739
1.2076995731
1.2104415059
1.2134234471
1.2165669543
1.2197964638
1.2230428106
1.2262449407
1.2293512207
1.2323202701
1.2351204626
1.2377295616
1.2401357975
1.2423324022
1.2443186709
1.2460986770
1.2476798817
1.2490725014
1.2502882982
1.2513397747
1.2522400033
1.2530018545
1.2536375413
1.2541586575
1.2545755999
1.2548973035
1.2551313684
1.2552835876
1.2553577917
1.2558907564
1.1326256719
1.1327730871
1.1327188765
1.1326115617
1.1324534756
1.1322480128
1.1319995057
1.1317131938
1.1313949773
1.1310511772
1.1306885028
1.1303142750
1.1299373000
1.1295641374
1.1292018495
1.1288580531
1.1285408256
1.1282594737
1.1280253372
1.1278525295
1.1277576505
1.1266147664
1.1996904985
1.2006963778
1.2012574325
1.2023791593
1.2040304542
1.2061598788
1.2086995353
1.2115700369
1.2146867180
1.2179642957
1.2213209038
1.2246819657
1.2279821648
1.2311669598
1.2341934388
1.2370297437
1.2396545656
1.2420581003
1.2442362994
1.2461912087
1.2479299690
1.2494631224
1.2508037128
1.2519660591
1.2529648255
1.2538148041
1.2545301963
1.2551241940
1.2556090435
1.2559955549
1.2562928983
1.2565087601
1.2566489566
1.2567173261
1.2573458067
1.1308652209
1.1310663109
1.1310094541
1.1308971139
1.1307321468
1.1305186371
1.1302618335
1.1299678945
1.1296435796
1.1292960980
1.1289328284
1.1285627302
1.1281921516
1.1278271104
1.1274732719
1.1271358366
1.1268201533
1.1265329526
1.1262844562
1.1260911342
1.1259775535
1.1248222338
1.2002696688
1.2013493832
1.2019256702
1.2030889860
1.2048117850
1.2070401226
1.2096998729
1.2127038225
1.2159591475
1.2193728479
1.2228562880
1.2263293321
1.2297225219
1.2329787113
1.2360539023
1.2389165503
1.2415468879
1.2439372969
1.2460871218
1.2480015320
1.2496911079
1.2511696232
1.2524530475
1.2535582147
1.2545018581
1.2553003436
1.2559690030
1.2565217837
1.2569713414
1.2573286617
1.2576029323
1.2578017345
1.2579307563
1.2579937385
1.2587281708
1.1292190722
1.1294678615
1.1294088510
1.1292925232
1.1291223164
1.1289031920
1.1286413933
1.1283442010
1.1280195392
1.1276755364
1.1273219171
1.1269659012
1.1266136825
1.1262702302
1.1259387055
1.1256207076
1.1253166532
1.1250278533
1.1247608386
1.1245336170
1.1243831952
1.1232319152
1.2008394021
1.2019940108
1.2025703685
1.2037650323
1.2055570045
1.2078880540
1.2106747382
1.2138191802
1.2172185612
1.2207711366
1.2243811445
1.2279629545
1.2314432941
1.2347629229
1.2378773628
1.2407560338
1.2433815788
1.2457482978
1.2478600007
1.2497252649
1.2513583482
1.2527764279
1.2539984083
1.2550435648
1.2559305579
1.2566771266
1.2572995150
1.2578121832
1.2582279496
1.2585577390
1.2588105435
1.2589936558
1.2591124918
1.2591705949
1.2600184200
1.1277093910
1.1279998897
1.1279393577
1.1278203397
1.1276469730
1.1274251708
1.1271623880
1.1268672210
1.1265489468
1.1262184046
1.1258846440
1.1255554332
1.1252369459
1.1249324782
1.1246422397
1.1243622990
1.1240849293
1.1238015773
1.1235091035
1.1232221536
1.1229936235
1.1218618325
1.2013906197
1.2026205869
1.2031614614
1.2043675715
1.2062255530
1.2086667198
1.2115920062
1.2148882378
1.2184399771
1.2221358125
1.2258727294
1.2295600401
1.2331213327
1.2364960433
1.2396400061
1.2425242926
1.2451345706
1.2474683228
1.2495327982
1.2513412451
1.2529116563
1.2542646712
1.2554221010
1.2564055464
1.2572354039
1.2579305648
1.2585079371
1.2589822503
1.2593662432
1.2596705555
1.2599037858
1.2600727709
1.2601825248
1.2602363041
1.2612016679
1.1263550029
1.1266813511
1.1266200117
1.1264997726
1.1263255327
1.1261043218
1.1258448671
1.1255576496
1.1252545089
1.1249466730
1.1246445895
1.1243572869
1.1240908805
1.1238474907
1.1236236948
1.1234082206
1.1231815887
1.1229177009
1.1225911358
1.1221969250
1.1217948125
1.1206976341
1.2019295833
1.2032355100
1.2036562702
1.2048376497
1.2067605995
1.2093279844
1.2124126501
1.2158792308
1.2195964210
1.2234423817
1.2273076627
1.2310975051
1.2347335226
1.2381549373
1.2413188798
1.2441990388
1.2467845026
1.2490764826
1.2510862974
1.2528317211
1.2543348083
1.2556196595
1.2567108861
1.2576322391
1.2584056444
1.2590508986
1.2595853263
1.2600236829
1.2603784034
1.2606596411
1.2608754272
1.2610319990
1.2611338593
1.2611839027
1.2622675589
1.1251707356
1.1255273392
1.1254659056
1.1253459014
1.1251730401
1.1249557080
1.1247046253
1.1244321846
1.1241515400
1.1238760282
1.1236184249
1.1233895225
1.1231962485
1.1230406293
1.1229158613
1.1228030303
1.1226670186
1.1224533049
1.1220898642
1.1215066462
1.1207054305
1.1196597520
1.2025059570
1.2038902127
1.2039850922
1.2050815033
1.2070808181
1.2098100754
1.2130913549
1.2167579594
1.2206601965
1.2246667896
1.2286631065
1.2325528166
1.2362573926
1.2397173368
1.2428922627
1.2457594371
1.2483118476
1.2505549363
1.2525043940
1.2541825440
1.2556155881
1.2568310076
1.2578560540
1.2587164140
1.2594352988
1.2600331671
1.2605275219
1.2609329235
1.2612613033
1.2615221587
1.2617228130
1.2618687913
1.2619640001
1.2620109140
1.2632103168
1.1241677324
1.1245488368
1.1244880567
1.1243698715
1.1242010868
1.1239913731
1.1237530895
1.1235005224
1.1232492442
1.1230154401
1.1228147841
1.1226608523
1.1225632796
1.1225257942
1.1225412117
1.1225854342
1.1226072949
1.1225130167
1.1221434790
1.1212498749
1.1195079401
1.1185369511
1.2032811928
1.2047516720
1.2040083398
1.2049372664
1.2070674609
1.2100364338
1.2135793603
1.2174916421
1.2216063583
1.2257865749
1.2299178346
1.2339048196
1.2376720766
1.2411626216
1.2443403051
1.2471867963
1.2496996552
1.2518887713
1.2537742824
1.2553832280
1.2567457036
1.2578924396
1.2588531089
1.2596550902
1.2603226297
1.2608766090
1.2613344926
1.2617104575
1.2620157717
1.2622591456
1.2624470919
1.2625843458
1.2626741619
1.2627185568
1.2640281159
1.1233548019
1.1237549458
1.1236955315
1.1235805289
1.1234176172
1.1232179183
1.1229955535
1.1227671236
1.1225510230
1.1223666884
1.1222335324
1.1221692886
1.1221886756
1.1223009417
1.1225048136
1.1227806786
1.1230741644
1.1232609732
1.1230632135
1.1218391235
1.1180430998
1.1171739176
1.2046962834
1.2062742685
1.2033898797
1.2041042646
1.2065473345
1.2099198022
1.2138336629
1.2180555223
1.2224179365
1.2267857166
1.2310539554
1.2351347834
1.2389575979
1.2424714369
1.2456447087
1.2484645249
1.2509335801
1.2530659333
1.2548864677
1.2564266269
1.2577203163
1.2588011860
1.2597010546
1.2604487286
1.2610692468
1.2615836951
1.2620093189
1.2623597643
1.2626455212
1.2628744278
1.2630521252
1.2631825188
1.2632681851
1.2633106664
1.2647220879
1.1227353178
1.1231497260
1.1230920654
1.1229810322
1.1228252438
1.1226372197
1.1224329892
1.1222315829
1.1220543580
1.1219243542
1.1218654200
1.1219008051
1.1220527965
1.1223413867
1.1227824170
1.1233864104
1.1241582229
1.1251028174
1.1262490235
1.1277300979
1.1300766219
1.1374396474
1.1513374575
1.1510560943
1.1826421492
1.1926045400
1.1969853588
1.2009439589
1.2050193722
1.2093198247
1.2138204021
1.2184444044
1.2230878977
1.2276570705
1.2320608123
1.2362279235
1.2400978832
1.2436268924
1.2467894717
1.2495780343
1.2520008972
1.2540764716
1.2558335866
1.2573082173
1.2585373949
1.2595573702
1.2604018001
1.2611006523
1.2616795341
1.2621595636
1.2625576323
1.2628867599
1.2631565983
1.2633740784
1.2635439532
1.2636692974
1.2637520156
1.2637931844
1.2652958593
1.1223097797
1.1227336148
1.1226779703
1.1225714009
1.1224234208
1.1222479083
1.1220627352
1.1218892790
1.1217518118
1.1216769865
1.1216931676
1.1218293728
1.1221155697
1.1225825723
1.1232619941
1.1241882614
1.1254033222
1.1269696967
1.1289999067
1.1317223095
1.1356503100
1.1424586046
1.1525272535
1.1521571858
1.1734982834
1.1849297584
1.1922645641
1.1981886962
1.2035321243
1.2086614837
1.2137214787
1.2187353058
1.2236535401
1.2284041643
1.2329296923
1.2371713260
1.2410783991
1.2446147542
1.2477613628
1.2505161783
1.2528926110
1.2549133382
1.2566114709
1.2580261184
1.2591971656
1.2601630650
1.2609589610
1.2616156986
1.2621592434
1.2626105975
1.2629862081
1.2632984197
1.2635560357
1.2637650933
1.2639294855
1.2640514935
1.2641323862
1.2641728048
1.2657542125
1.1220762065
1.1225046159
1.1224510776
1.1223491030
1.1222090035
1.1220458700
1.1218792177
1.1217325317
1.1216327117
1.1216096698
1.1216958459
1.1219253676
1.1223347651
1.1229636613
1.1238552758
1.1250592259
1.1266363144
1.1286693057
1.1312820808
1.1346723569
1.1391723418
1.1454201489
1.1532821828
1.1585881102
1.1718472577
1.1818207833
1.1896903369
1.1964159770
1.2024817440
1.2081790389
1.2136667805
1.2189985711
1.2241376609
1.2290387109
1.2336610670
1.2379580664
1.2418882970
1.2454228354
1.2485485252
1.2512682752
1.2535997182
1.2555701504
1.2572158623
1.2585783564
1.2596997654
1.2606202629
1.2613760763
1.2619986274
1.2625140346
1.2629430710
1.2633016897
1.2636015620
1.2638506850
1.2640542662
1.2642154109
1.2643356827
1.2644157795
1.2644559553
1.2661020449
1.1220301837
1.1224582807
1.1224067788
1.1223091833
1.1221764503
1.1220246532
1.1218746431
1.1217516184
1.1216846093
1.1217061560
1.1218519569
1.1221600891
1.1226719686
1.1234333866
1.1244948696
1.1259141085
1.1277592286
1.1301156953
1.1330961813
1.1368525551
1.1415884009
1.1475596803
1.1546370933
1.1615168920
1.1715349650
1.1804947796
1.1883680807
1.1954183045
1.2018751024
1.2079263733
1.2137044272
1.2192631133
1.2245578053
1.2295638867
1.2342501581
1.2385790815
1.2425166638
1.2460399766
1.2491407383
1.2518258727
1.2541162495
1.2560432128
1.2576450894
1.2589648217
1.2600466824
1.2609319629
1.2616574143
1.2622546887
1.2627498607
1.2631633871
1.2635107196
1.2638029034
1.2640472202
1.2642481573
1.2644081454
1.2645281399
1.2646083584
1.2646487301
1.2663442642
1.1221654576
1.1225882750
1.1225386145
1.1224449115
1.1223185700
1.1221763492
1.1220400353
1.1219360264
1.1218948352
1.1219508145
1.1221418893
1.1225087530
1.1230959009
1.1239528125
1.1251339188
1.1267003732
1.1287217655
1.1312799975
1.1344733609
1.1384183290
1.1432454281
1.1490701603
1.1558135212
1.1630226664
1.1716808305
1.1800484771
1.1878236764
1.1949951775
1.2016473170
1.2078940431
1.2138424617
1.2195328240
1.2249158607
1.2299765162
1.2346901618
1.2390254944
1.2429539299
1.2464569973
1.2495300232
1.2521828402
1.2544386205
1.2563308703
1.2578997132
1.2591892609
1.2602440726
1.2611057597
1.2618114817
1.2623929959
1.2628762281
1.2632812854
1.2636231450
1.2639123040
1.2641554485
1.2643564821
1.2645172971
1.2646383712
1.2647195471
1.2647605014
1.2664893946
1.1224743327
1.1228867701
1.1228386857
1.1227482325
1.1226270326
1.1224921844
1.1223659421
1.1222753080
1.1222515396
1.1223298778
1.1225493599
1.1229519364
1.1235834742
1.1244950459
1.1257425886
1.1273881593
1.1295006906
1.1321582354
1.1354493491
1.1394709149
1.1443198162
1.1500633928
1.1566506523
1.1638778633
1.1720116824
1.1801044196
1.1878077597
1.1950122609
1.2017363758
1.2080573926
1.2140697186
1.2198025770
1.2252063741
1.2302701499
1.2349736018
1.2392894122
1.2431924489
1.2466670386
1.2497106703
1.2523348236
1.2545638683
1.2564322713