<VTKFile type="UnstructuredGrid" version="0.1">
	<UnstructuredGrid>
		<Piece NumberOfPoints="13548" NumberOfCells="3387">
			<CellData>
				<DataArray type="Int32" Name="ghost" NumberOfComponents="1" Format="ascii">
1
1
1
1
1
1
1
1
1
1
1
1
1
1
1
1
1
1
1
1
1
1
1
1
1
1
1
1
1
1
1
1
1
1
1
1
1
1
1
1
1
1
1
1
1
1
1
1
1
1
1
1
1
1
1
1
1
1
0
0
0
0
0
0
0
0
0
0
0
0
0
0
0
0
0
0
0
0
1
1
0
0
0
0
0
0
0
0
0
0
0
0
0
0
0
0
0
0
0
0
0
0
0
0
0
0
0
0
0
0
0
0
0
1
1
0
0
0
0
0
0
0
0
0
0
0
0
0
0
0
0
0
0
0
0
1
1
0
0
0
0
0
0
0
0
0
0
0
0
0
0
0
0
0
0
0
0
0
0
0
0
0
0
0
0
0
0
0
0
0
1
1
0
0
0
0
0
0
0
0
0
0
0
0
0
0
0
0
0
0
0
0
1
1
0
0
0
0
0
0
0
0
0
0
0
0
0
0
0
0
0
0
0
0
0
0
0
0
0
0
0
0
0
0
0
0
0
1
1
0
0
0
0
0
0
0
0
0
0
0
0
0
0
0
0
0
0
0
0
1
1
0
0
0
0
0
0
0
0
0
0
0
0
0
0
0
0
0
0
0
0
0
0
0
0
0
0
0
0
0
0
0
0
0
1
1
0
0
0
0
0
0
0
0
0
0
0
0
0
0
0
0
0
0
0
0
1
1
0
0
0
0
0
0
0
0
0
0
0
0
0
0
0
0
0
0
0
0
0
0
0
0
0
0
0
0
0
0
0
0
0
1
1
0
0
0
0
0
0
0
0
0
0
0
0
0
0
0
0
0
0
0
0
1
1
0
0
0
0
0
0
0
0
0
0
0
0
0
0
0
0
0
0
0
0
0
0
0
0
0
0
0
0
0
0
0
0
0
1
1
0
0
0
0
0
0
0
0
0
0
0
0
0
0
0
0
0
0
0
0
1
1
0
0
0
0
0
0
0
0
0
0
0
0
0
0
0
0
0
0
0
0
0
0
0
0
0
0
0
0
0
0
0
0
0
1
1
0
0
0
0
0
0
0
0
0
0
0
0
0
0
0
0
0
0
0
0
1
1
0
0
0
0
0
0
0
0
0
0
0
0
0
0
0
0
0
0
0
0
0
0
0
0
0
0
0
0
0
0
0
0
0
1
1
0
0
0
0
0
0
0
0
0
0
0
0
0
0
0
0
0
0
0
0
1
1
0
0
0
0
0
0
0
0
0
0
0
0
0
0
0
0
0
0
0
0
0
0
0
0
0
0
0
0
0
0
0
0
0
1
1
0
0
0
0
0
0
0
0
0
0
0
0
0
0
0
0
0
0
0
0
1
1
0
0
0
0
0
0
0
0
0
0
0
0
0
0
0
0
0
0
0
0
0
0
0
0
0
0
0
0
0
0
0
0
0
1
1
0
0
0
0
0
0
0
0
0
0
0
0
0
0
0
0
0
0
0
0
1
1
0
0
0
0
0
0
0
0
0
0
0
0
0
0
0
0
0
0
0
0
0
0
0
0
0
0
0
0
0
0
0
0
0
1
1
0
0
0
0
0
0
0
0
0
0
0
0
0
0
0
0
0
0
0
0
1
1
0
0
0
0
0
0
0
0
0
0
0
0
0
0
0
0
0
0
0
0
0
0
0
0
0
0
0
0
0
0
0
0
0
1
1
0
0
0
0
0
0
0
0
0
0
0
0
0
0
0
0
0
0
0
0
1
1
0
0
0
0
0
0
0
0
0
0
0
0
0
0
0
0
0
0
0
0
0
0
0
0
0
0
0
0
0
0
0
0
0
1
1
0
0
0
0
0
0
0
0
0
0
0
0
0
0
0
0
0
0
0
0
1
1
0
0
0
0
0
0
0
0
0
0
0
0
0
0
0
0
0
0
0
0
0
0
0
0
0
0
0
0
0
0
0
0
0
1
1
0
0
0
0
0
0
0
0
0
0
0
0
0
0
0
0
0
0
0
0
1
1
0
0
0
0
0
0
0
0
0
0
0
0
0
0
0
0
0
0
0
0
0
0
0
0
0
0
0
0
0
0
0
0
0
1
1
0
0
0
0
0
0
0
0
0
0
0
0
0
0
0
0
0
0
0
0
1
1
0
0
0
0
0
0
0
0
0
0
0
0
0
0
0
0
0
0
0
0
0
0
0
0
0
0
0
0
0
0
0
0
0
1
1
0
0
0
0
0
0
0
0
0
0
0
0
0
0
0
0
0
0
0
0
1
1
0
0
0
0
0
0
0
0
0
0
0
0
0
0
0
0
0
0
0
0
0
0
0
0
0
0
0
0
0
0
0
0
0
1
1
0
0
0
0
0
0
0
0
0
0
0
0
0
0
0
0
0
0
0
0
1
1
0
0
0
0
0
0
0
0
0
0
0
0
0
0
0
0
0
0
0
0
0
0
0
0
0
0
0
0
0
0
0
0
0
1
1
0
0
0
0
0
0
0
0
0
0
0
0
0
0
0
0
0
0
0
0
1
1
0
0
0
0
0
0
0
0
0
0
0
0
0
0
0
0
0
0
0
0
0
0
0
0
0
0
0
0
0
0
0
0
0
1
1
0
0
0
0
0
0
0
0
0
0
0
0
0
0
0
0
0
0
0
0
1
1
0
0
0
0
0
0
0
0
0
0
0
0
0
0
0
0
0
0
0
0
0
0
0
0
0
0
0
0
0
0
0
0
0
1
1
0
0
0
0
0
0
0
0
0
0
0
0
0
0
0
0
0
0
0
0
1
1
0
0
0
0
0
0
0
0
0
0
0
0
0
0
0
0
0
0
0
0
0
0
0
0
0
0
0
0
0
0
0
0
0
1
1
0
0
0
0
0
0
0
0
0
0
0
0
0
0
0
0
0
0
0
0
1
1
0
0
0
0
0
0
0
0
0
0
0
0
0
0
0
0
0
0
0
0
0
0
0
0
0
0
0
0
0
0
0
0
0
1
1
0
0
0
0
0
0
0
0
0
0
0
0
0
0
0
0
0
0
0
0
1
1
0
0
0
0
0
0
0
0
0
0
0
0
0
0
0
0
0
0
0
0
0
0
0
0
0
0
0
0
0
0
0
0
0
1
1
0
0
0
0
0
0
0
0
0
0
0
0
0
0
0
0
0
0
0
0
1
1
0
0
0
0
0
0
0
0
0
0
0
0
0
0
0
0
0
0
0
0
0
0
0
0
0
0
0
0
0
0
0
0
0
1
1
0
0
0
0
0
0
0
0
0
0
0
0
0
0
0
0
0
0
0
0
0
1
1
0
0
0
0
0
0
0
0
0
0
0
0
0
0
0
0
0
0
0
0
0
0
0
0
0
0
0
0
0
0
0
0
0
0
1
1
0
0
0
0
0
0
0
0
0
0
0
0
0
0
0
0
0
0
0
0
0
0
0
0
0
0
0
0
0
0
0
0
0
0
0
0
0
0
0
0
0
0
0
0
0
0
0
0
0
0
0
0
0
0
0
0
0
1
1
0
0
0
0
0
0
0
0
0
0
0
0
0
0
0
0
0
0
0
0
0
0
0
0
0
0
0
0
0
0
0
0
0
0
0
0
0
0
0
0
0
0
0
0
0
0
0
0
0
0
0
0
0
0
0
0
0
1
1
0
0
0
0
0
0
0
0
0
0
0
0
0
0
0
0
0
0
0
0
0
0
0
0
0
0
0
0
0
0
0
0
0
0
0
0
0
0
0
0
0
0
0
0
0
0
0
0
0
0
0
0
0
0
0
0
0
1
1
0
0
0
0
0
0
0
0
0
0
0
0
0
0
0
0
0
0
0
0
0
0
0
0
0
0
0
0
0
0
0
0
0
0
0
0
0
0
0
0
0
0
0
0
0
0
0
0
0
0
0
0
0
0
0
0
0
1
1
0
0
0
0
0
0
0
0
0
0
0
0
0
0
0
0
0
0
0
0
0
0
0
0
0
0
0
0
0
0
0
0
0
0
0
0
0
0
0
0
0
0
0
0
0
0
0
0
0
0
0
0
0
0
0
0
0
1
1
0
0
0
0
0
0
0
0
0
0
0
0
0
0
0
0
0
0
0
0
0
0
0
0
0
0
0
0
0
0
0
0
0
0
0
0
0
0
0
0
0
0
0
0
0
0
0
0
0
0
0
0
0
0
0
0
0
1
1
0
0
0
0
0
0
0
0
0
0
0
0
0
0
0
0
0
0
0
0
0
0
0
0
0
0
0
0
0
0
0
0
0
0
0
0
0
0
0
0
0
0
0
0
0
0
0
0
0
0
0
0
0
0
0
0
0
1
1
0
0
0
0
0
0
0
0
0
0
0
0
0
0
0
0
0
0
0
0
0
0
0
0
0
0
0
0
0
0
0
0
0
0
0
0
0
0
0
0
0
0
0
0
0
0
0
0
0
0
0
0
0
0
0
0
0
1
1
0
0
0
0
0
0
0
0
0
0
0
0
0
0
0
0
0
0
0
0
0
0
0
0
0
0
0
0
0
0
0
0
0
0
0
0
0
0
0
0
0
0
0
0
0
0
0
0
0
0
0
0
0
0
0
0
0
1
1
0
0
0
0
0
0
0
0
0
0
0
0
0
0
0
0
0
0
0
0
0
0
0
0
0
0
0
0
0
0
0
0
0
0
0
0
0
0
0
0
0
0
0
0
0
0
0
0
0
0
0
0
0
0
0
0
0
1
1
0
0
0
0
0
0
0
0
0
0
0
0
0
0
0
0
0
0
0
0
0
1
1
0
0
0
0
0
0
0
0
0
0
0
0
0
0
0
0
0
0
0
0
0
0
0
0
0
0
0
0
0
0
0
0
0
0
1
1
0
0
0
0
0
0
0
0
0
0
0
0
0
0
0
0
0
0
0
0
1
1
0
0
0
0
0
0
0
0
0
0
0
0
0
0
0
0
0
0
0
0
0
0
0
0
0
0
0
0
0
0
0
0
0
1
1
0
0
0
0
0
0
0
0
0
0
0
0
0
0
0
0
0
0
0
0
1
1
0
0
0
0
0
0
0
0
0
0
0
0
0
0
0
0
0
0
0
0
0
0
0
0
0
0
0
0
0
0
0
0
0
1
1
0
0
0
0
0
0
0
0
0
0
0
0
0
0
0
0
0
0
0
0
1
1
0
0
0
0
0
0
0
0
0
0
0
0
0
0
0
0
0
0
0
0
0
0
0
0
0
0
0
0
0
0
0
0
0
1
1
0
0
0
0
0
0
0
0
0
0
0
0
0
0
0
0
0
0
0
0
1
1
0
0
0
0
0
0
0
0
0
0
0
0
0
0
0
0
0
0
0
0
0
0
0
0
0
0
0
0
0
0
0
0
0
1
1
0
0
0
0
0
0
0
0
0
0
0
0
0
0
0
0
0
0
0
0
1
1
0
0
0
0
0
0
0
0
0
0
0
0
0
0
0
0
0
0
0
0
0
0
0
0
0
0
0
0
0
0
0
0
0
1
1
0
0
0
0
0
0
0
0
0
0
0
0
0
0
0
0
0
0
0
0
1
1
0
0
0
0
0
0
0
0
0
0
0
0
0
0
0
0
0
0
0
0
0
0
0
0
0
0
0
0
0
0
0
0
0
1
1
0
0
0
0
0
0
0
0
0
0
0
0
0
0
0
0
0
0
0
0
1
1
0
0
0
0
0
0
0
0
0
0
0
0
0
0
0
0
0
0
0
0
0
0
0
0
0
0
0
0
0
0
0
0
0
1
1
0
0
0
0
0
0
0
0
0
0
0
0
0
0
0
0
0
0
0
0
1
1
0
0
0
0
0
0
0
0
0
0
0
0
0
0
0
0
0
0
0
0
0
0
0
0
0
0
0
0
0
0
0
0
0
1
1
0
0
0
0
0
0
0
0
0
0
0
0
0
0
0
0
0
0
0
0
1
1
0
0
0
0
0
0
0
0
0
0
0
0
0
0
0
0
0
0
0
0
0
0
0
0
0
0
0
0
0
0
0
0
0
1
1
0
0
0
0
0
0
0
0
0
0
0
0
0
0
0
0
0
0
0
0
1
1
0
0
0
0
0
0
0
0
0
0
0
0
0
0
0
0
0
0
0
0
0
0
0
0
0
0
0
0
0
0
0
0
0
1
1
0
0
0
0
0
0
0
0
0
0
0
0
0
0
0
0
0
0
0
0
1
1
0
0
0
0
0
0
0
0
0
0
0
0
0
0
0
0
0
0
0
0
0
0
0
0
0
0
0
0
0
0
0
0
0
1
1
0
0
0
0
0
0
0
0
0
0
0
0
0
0
0
0
0
0
0
0
1
1
0
0
0
0
0
0
0
0
0
0
0
0
0
0
0
0
0
0
0
0
0
0
0
0
0
0
0
0
0
0
0
0
0
1
1
0
0
0
0
0
0
0
0
0
0
0
0
0
0
0
0
0
0
0
0
1
1
0
0
0
0
0
0
0
0
0
0
0
0
0
0
0
0
0
0
0
0
0
0
0
0
0
0
0
0
0
0
0
0
0
1
1
0
0
0
0
0
0
0
0
0
0
0
0
0
0
0
0
0
0
0
0
1
1
0
0
0
0
0
0
0
0
0
0
0
0
0
0
0
0
0
0
0
0
0
0
0
0
0
0
0
0
0
0
0
0
0
1
1
0
0
0
0
0
0
0
0
0
0
0
0
0
0
0
0
0
0
0
0
1
1
0
0
0
0
0
0
0
0
0
0
0
0
0
0
0
0
0
0
0
0
0
0
0
0
0
0
0
0
0
0
0
0
0
1
1
0
0
0
0
0
0
0
0
0
0
0
0
0
0
0
0
0
0
0
0
1
1
0
0
0
0
0
0
0
0
0
0
0
0
0
0
0
0
0
0
0
0
0
0
0
0
0
0
0
0
0
0
0
0
0
1
1
0
0
0
0
0
0
0
0
0
0
0
0
0
0
0
0
0
0
0
0
1
1
0
0
0
0
0
0
0
0
0
0
0
0
0
0
0
0
0
0
0
0
0
0
0
0
0
0
0
0
0
0
0
0
0
1
1
0
0
0
0
0
0
0
0
0
0
0
0
0
0
0
0
0
0
0
0
1
1
0
0
0
0
0
0
0
0
0
0
0
0
0
0
0
0
0
0
0
0
0
0
0
0
0
0
0
0
0
0
0
0
0
1
1
0
0
0
0
0
0
0
0
0
0
0
0
0
0
0
0
0
0
0
0
1
1
0
0
0
0
0
0
0
0
0
0
0
0
0
0
0
0
0
0
0
0
0
0
0
0
0
0
0
0
0
0
0
0
0
1
1
0
0
0
0
0
0
0
0
0
0
0
0
0
0
0
0
0
0
0
0
1
1
0
0
0
0
0
0
0
0
0
0
0
0
0
0
0
0
0
0
0
0
0
0
0
0
0
0
0
0
0
0
0
0
0
1
1
0
0
0
0
0
0
0
0
0
0
0
0
0
0
0
0
0
0
0
0
1
1
0
0
0
0
0
0
0
0
0
0
0
0
0
0
0
0
0
0
0
0
0
0
0
0
0
0
0
0
0
0
0
0
0
1
1
1
1
1
1
1
1
1
1
1
1
1
1
1
1
1
1
1
1
1
1
1
1
1
1
1
1
1
1
1
1
1
1
1
1
1
1
1
1
1
1
1
1
1
1
1
1
1
1
1
1
1
1
1
1
1
1
				</DataArray>
				<DataArray type="Float64" Name="h" NumberOfComponents="1" Format="ascii">
1.4999859955
1.4999673796
1.4999420175
1.4998843401
1.4997818801
1.4996192447
1.4993813591
1.4990567117
1.4986399074
1.4981331609
1.4975465609
1.4968971868
1.4962075581
1.4955036873
1.4948130495
1.4941628433
1.4935784798
1.4930824248
1.4926934299
1.4924259250
1.4922896951
1.4922896951
1.0001931291
1.0002860811
1.0002740852
1.0002513741
1.0002203349
1.0001841248
1.0001462206
1.0001099146
1.0000778468
1.0000516770
1.0000319687
1.0000183149
1.0000096520
1.0000046448
1.0000020246
1.0000007921
1.0000002752
1.0000000839
1.0000000221
1.0000000049
1.0000000009
1.0000000001
1.0000000000
1.0000000000
1.0000000000
1.0000000000
1.0000000000
1.0000000000
1.0000000000
1.0000000000
1.0000000000
1.0000000000
1.0000000000
1.0000000000
1.0000000000
1.4999673796
1.4999310028
1.4998884985
1.4997955294
1.4996382369
1.4994003756
1.4990673588
1.4986298672
1.4980862470
1.4974435021
1.4967169235
1.4959286190
1.4951055638
1.4942774299
1.4934744911
1.4927259520
1.4920585524
1.4914955620
1.4910561728
1.4907550157
1.4906019502
1.4922896951
1.0002860811
1.0004148565
1.0003986258
1.0003677681
1.0003252934
1.0002752317
1.0002221073
1.0001703310
1.0001236062
1.0000844725
1.0000540774
1.0000322440
1.0000177971
1.0000090333
1.0000041863
1.0000017573
1.0000006623
1.0000002217
1.0000000651
1.0000000165
1.0000000035
1.0000000006
1.0000000001
1.0000000000
1.0000000000
1.0000000000
1.0000000000
1.0000000000
1.0000000000
1.0000000000
1.0000000000
1.0000000000
1.0000000000
1.0000000000
1.0000000000
1.4999306993
1.4998679883
1.4998045959
1.4996703655
1.4994527108
1.4991377066
1.4987142508
1.4981774751
1.4975306483
1.4967855748
1.4959616921
1.4950842502
1.4941822544
1.4932863589
1.4924269527
1.4916327361
1.4909295599
1.4903396390
1.4898811282
1.4895677666
1.4894087699
1.4911363506
1.0004889199
1.0006815416
1.0006573477
1.0006110750
1.0005467418
1.0004698367
1.0003867102
1.0003038213
1.0002269377
1.0001604328
1.0001068143
1.0000666203
1.0000387068
1.0000208250
1.0000103095
1.0000046642
1.0000019137
1.0000007059
1.0000002318
1.0000000669
1.0000000167
1.0000000035
1.0000000006
1.0000000001
1.0000000000
1.0000000000
1.0000000000
1.0000000000
1.0000000000
1.0000000000
1.0000000000
1.0000000000
1.0000000000
1.0000000000
1.0000000000
1.4998365892
1.4997145107
1.4996077441
1.4993886156
1.4990484068
1.4985791768
1.4979777344
1.4972484311
1.4964040929
1.4954654083
1.4944591965
1.4934160898
1.4923683918
1.4913481587
1.4903856563
1.4895084006
1.4887404226
1.4881018735
1.4876089228
1.4872736228
1.4871039800
1.4888991144
1.0009758482
1.0013071925
1.0012656710
1.0011857240
1.0010733261
1.0009368516
1.0007863553
1.0006325857
1.0004858041
1.0003545831
1.0002447848
1.0001590060
1.0000966629
1.0000546858
1.0000286216
1.0000137724
1.0000060518
1.0000024102
1.0000008626
1.0000002746
1.0000000768
1.0000000186
1.0000000038
1.0000000006
1.0000000001
1.0000000000
1.0000000000
1.0000000000
1.0000000000
1.0000000000
1.0000000000
1.0000000000
1.0000000000
1.0000000000
1.0000000000
1.4996421055
1.4994159810
1.4992414499
1.4988912623
1.4983652112
1.4976670470
1.4968072763
1.4958045871
1.4946853814
1.4934820493
1.4922304913
1.4909674830
1.4897286728
1.4885470573
1.4874519941
1.4864688690
1.4856189038
1.4849192491
1.4843832757
1.4840206990
1.4838378662
1.4857076039
1.0019117365
1.0024738880
1.0024034850
1.0022670788
1.0020733068
1.0018346116
1.0015665118
1.0012864273
1.0010120437
1.0007593934
1.0005408931
1.0003638619
1.0002299736
1.0001358351
1.0000745681
1.0000378301
1.0000176298
1.0000074978
1.0000028890
1.0000010001
1.0000003080
1.0000000834
1.0000000195
1.0000000039
1.0000000006
1.0000000001
1.0000000000
1.0000000000
1.0000000000
1.0000000000
1.0000000000
1.0000000000
1.0000000000
1.0000000000
1.0000000000
1.4992809524
1.4988926922
1.4986257774
1.4980990640
1.4973273019
1.4963333465
1.4951481755
1.4938099064
1.4923615957
1.4908486254
1.4893159641
1.4878057166
1.4863556723
1.4849984442
1.4837612023
1.4826660550
1.4817304326
1.4809676802
1.4803877416
1.4799975283
1.4798014206
1.4817311015
1.0035411964
1.0044396879
1.0043271653
1.0041077953
1.0037929588
1.0033995835
1.0029497100
1.0024694140
1.0019868801
1.0015297032
1.0011215938
1.0007792722
1.0005104588
1.0003136343
1.0001798198
1.0000957061
1.0000470297
1.0000212142
1.0000087292
1.0000032535
1.0000010894
1.0000003245
1.0000000850
1.0000000193
1.0000000037
1.0000000006
1.0000000001
1.0000000000
1.0000000000
1.0000000000
1.0000000000
1.0000000000
1.0000000000
1.0000000000
1.0000000000
1.4986651483
1.4980454073
1.4976647035
1.4969228347
1.4958565267
1.4945155365
1.4929579948
1.4912458758
1.4894408192
1.4876010860
1.4857792940
1.4840208616
1.4823636257
1.4808379347
1.4794672274
1.4782691474
1.4772564564
1.4764380759
1.4758201019
1.4754063628
1.4751991036
1.4771569888
1.0061632265
1.0074990953
1.0073319599
1.0070039789
1.0065281773
1.0059247993
1.0052217138
1.0044540633
1.0036626186
1.0028906467
1.0021791384
1.0015613089
1.0010578423
1.0006743975
1.0004025727
1.0002239269
1.0001154951
1.0000549521
1.0000239877
1.0000095485
1.0000034422
1.0000011149
1.0000003213
1.0000000815
1.0000000179
1.0000000033
1.0000000005
1.0000000001
1.0000000000
1.0000000000
1.0000000000
1.0000000000
1.0000000000
1.0000000000
1.0000000000
1.4976913736
1.4967653129
1.4962567923
1.4952751758
1.4938849561
1.4921691074
1.4902181158
1.4881208987
1.4859584611
1.4838008760
1.4817062403
1.4797207327
1.4778798204
1.4762095768
1.4747281954
1.4734478003
1.4723758026
1.4715162929
1.4708712971
1.4704414452
1.4702267914
1.4721712938
1.0100695930
1.0119073808
1.0116783378
1.0112256281
1.0105611595
1.0097049133
1.0086868972
1.0075484776
1.0063421232
1.0051289048
1.0039728148
1.0029325040
1.0020522802
1.0013550233
1.0008400663
1.0004868215
1.0002625225
1.0001311331
1.0000603839
1.0000254981
1.0000098158
1.0000034220
1.0000010720
1.0000002989
1.0000000733
1.0000000156
1.0000000028
1.0000000004
1.0000000001
1.0000000000
1.0000000000
1.0000000000
1.0000000000
1.0000000000
1.0000000000
1.4962517285
1.4949469002
1.4943073588
1.4930812307
1.4913636208
1.4892738324
1.4869372131
1.4844708954
1.4819750655
1.4795301913
1.4771976751
1.4750220694
1.4730342877
1.4712543790
1.4696940421
1.4683590866
1.4672511249
1.4663692148
1.4657112529
1.4652746749
1.4650573652
1.4669437080
1.0154473074
1.0177784065
1.0174906799
1.0169173279
1.0160647454
1.0149464731
1.0135872956
1.0120272711
1.0103243667
1.0085545301
1.0068069669
1.0051740339
1.0037371302
1.0025521179
1.0016401754
1.0009877323
1.0005550915
1.0002899305
1.0001401537
1.0000624197
1.0000254836
1.0000094837
1.0000031963
1.0000009681
1.0000002611
1.0000000620
1.0000000128
1.0000000022
1.0000000003
1.0000000000
1.0000000000
1.0000000000
1.0000000000
1.0000000000
1.0000000000
1.4942469396
1.4925012628
1.4917399522
1.4902869559
1.4882668746
1.4858342392
1.4831483921
1.4803539321
1.4775693155
1.4748841416
1.4723615366
1.4700427324
1.4679525325
1.4661037188
1.4645006436
1.4631423087
1.4620243130
1.4611406496
1.4604851461
1.4600521217
1.4598373486
1.4616217123
1.0222722342
1.0249926293
1.0246635880
1.0240015922
1.0230024034
1.0216654609
1.0200002177
1.0180333707
1.0158156577
1.0134269028
1.0109756068
1.0085902635
1.0064015889
1.0045184476
1.0030064237
1.0018778314
1.0010968939
1.0005970454
1.0003017258
1.0001410228
1.0000606979
1.0000239438
1.0000086092
1.0000028036
1.0000008208
1.0000002140
1.0000000492
1.0000000098
1.0000000017
1.0000000002
1.0000000000
1.0000000000
1.0000000000
1.0000000000
1.0000000000
1.4915988207
1.4893667611
1.4885048352
1.4868638545
1.4845928119
1.4818761176
1.4789028417
1.4758423220
1.4728297879
1.4699631033
1.4673063966
1.4648968225
1.4627523138
1.4608777421
1.4592696837
1.4579201343
1.4568186681
1.4559543210
1.4553169959
1.4548980125
1.4546910931
1.4563321822
1.0302496404
1.0331713354
1.0328316611
1.0321400045
1.0310772230
1.0296218802
1.0277581733
1.0254857742
1.0228308247
1.0198575471
1.0166760194
1.0134407032
1.0103346382
1.0075377630
1.0051889722
1.0033572273
1.0020341995
1.0011506457
1.0006057583
1.0002958389
1.0001335503
1.0000555037
1.0000211385
1.0000073381
1.0000023077
1.0000006526
1.0000001645
1.0000000365
1.0000000071
1.0000000012
1.0000000002
1.0000000000
1.0000000000
1.0000000000
1.0000000000
1.4882586155
1.4855144475
1.4845826222
1.4828096047
1.4803605492
1.4774409663
1.4742625161
1.4710147712
1.4678476453
1.4648667089
1.4621371632
1.4596922181
1.4575429431
1.4556862284
1.4541108437
1.4528018556
1.4517429979
1.4509185928
1.4503148440
1.4499202133
1.4497264135
1.4511856670
1.0388557757
1.0417539277
1.0414417925
1.0407952867
1.0397781866
1.0383446352
1.0364475375
1.0340492818
1.0311350503
1.0277301595
1.0239180347
1.0198522014
1.0157523004
1.0118738223
1.0084554136
1.0056627079
1.0035541414
1.0020846986
1.0011399001
1.0005795348
1.0002731601
1.0001189710
1.0000476943
1.0000175205
1.0000058674
1.0000017805
1.0000004860
1.0000001183
1.0000000254
1.0000000047
1.0000000008
1.0000000001
1.0000000000
1.0000000000
1.0000000000
1.4842106962
1.4809489996
1.4799843644
1.4781467596
1.4756074670
1.4725821710
1.4692959454
1.4659525961
1.4627138943
1.4596925389
1.4569553214
1.4545322733
1.4524282168
1.4506324864
1.4491263956
1.4478884589
1.4468969995
1.4461320623
1.4455764995
1.4452160888
1.4450405188
1.4462826270
1.0474732755
1.0501456425
1.0498989496
1.0493723851
1.0485123566
1.0472488275
1.0455033017
1.0431982904
1.0402695480
1.0366852776
1.0324720777
1.0277429930
1.0227155393
1.0176988657
1.0130394729
1.0090376453
1.0058710358
1.0035653478
1.0020200228
1.0010657289
1.0005224250
1.0002373337
1.0000996040
1.0000384727
1.0000136182
1.0000043952
1.0000012857
1.0000003385
1.0000000795
1.0000000165
1.0000000030
1.0000000005
1.0000000001
1.0000000000
1.0000000000
1.4794720250
1.4757062687
1.4747491584
1.4729204931
1.4703871804
1.4673633189
1.4640770681
1.4607392579
1.4575197609
1.4545373544
1.4518609160
1.4495183383
1.4475092175
1.4458161905
1.4444138855
1.4432750454
1.4423733918
1.4416854503
1.4411912817
1.4408742005
1.4407217276
1.4417166815
1.0555496546
1.0578564302
1.0577078334
1.0573646359
1.0567555572
1.0557885249
1.0543583058
1.0523532141
1.0496627671
1.0461931348
1.0418944403
1.0368005785
1.0310731176
1.0250223618
1.0190759660
1.0136847899
1.0091984383
1.0057776001
1.0033856829
1.0018487201
1.0009393086
1.0004432603
1.0001938015
1.0000782673
1.0000290922
1.0000099107
1.0000030790
1.0000008673
1.0000002200
1.0000000498
1.0000000100
1.0000000017
1.0000000003
1.0000000000
1.0000000000
1.4740883266
1.4698485403
1.4689400304
1.4671955462
1.4647676697
1.4618573653
1.4586851380
1.4554606983
1.4523571678
1.4494974660
1.4469525701
1.4447492013
1.4428829852
1.4413311494
1.4400629503
1.4390467395
1.4382530501
1.4376561749
1.4372342879
1.4369685062
1.4368437345
1.4375706078
1.0626962385
1.0645654507
1.0645432868
1.0644348966
1.0641479696
1.0635691148
1.0625722859
1.0610223494
1.0587758233
1.0556874483
1.0516304375
1.0465377032
1.0404649887
1.0336526719
1.0265433471
1.0197118428
1.0137096933
1.0089020331
1.0053886932
1.0030390004
1.0015957590
1.0007793862
1.0003534690
1.0001485046
1.0000576305
1.0000205851
1.0000067397
1.0000020129
1.0000005453
1.0000001331
1.0000000290
1.0000000056
1.0000000009
1.0000000002
1.0000000000
1.4681303678
1.4634608071
1.4626409985
1.4610546063
1.4588310713
1.4561475262
1.4532061719
1.4502067442
1.4473195821
1.4446686340
1.4423261754
1.4403184099
1.4386384029
1.4372597736
1.4361484664
1.4352707015
1.4345961460
1.4340989553
1.4337568453
1.4335490086
1.4334565951
1.4339082592
1.0686892640
1.0700979609
1.0702334916
1.0704096275
1.0705032812
1.0703758492
1.0698840858
1.0688808112
1.0672077588
1.0646901573
1.0611430351
1.0564018544
1.0503899043
1.0432124702
1.0352365145
1.0270848907
1.0194937328
1.0130833377
1.0081746601
1.0047538935
1.0025735781
1.0012968222
1.0006077215
1.0002644245
1.0001065825
1.0000396818
1.0000135990
1.0000042726
1.0000012249
1.0000003186
1.0000000747
1.0000000157
1.0000000029
1.0000000005
1.0000000001
1.4616907667
1.4566477818
1.4559546688
1.4545968520
1.4526731622
1.4503273302
1.4477329751
1.4450704730
1.4425001971
1.4401427280
1.4380698784
1.4363075884
1.4348479608
1.4336634715
1.4327198076
1.4319845093
1.4314299698
1.4310334790
1.4307745224
1.4306305997
1.4305765564
1.4307636881
1.0734068846
1.0743584890
1.0746991545
1.0752259795
1.0757651276
1.0761422128
1.0761963456
1.0757775859
1.0747313638
1.0728799252
1.0700110534
1.0658890163
1.0603095828
1.0532064980
1.0447853795
1.0356075556
1.0265179005
1.0183961137
1.0118593427
1.0071037395
1.0039571612
1.0020516445
1.0009900721
1.0004443387
1.0001851600
1.0000714753
1.0000254849
1.0000083650
1.0000025175
1.0000006915
1.0000001724
1.0000000388
1.0000000078
1.0000000016
1.0000000005
1.4548806854
1.4495305269
1.4489991172
1.4479352018
1.4464008503
1.4444979912
1.4423618913
1.4401438382
1.4379860585
1.4360001852
1.4342549069
1.4327758319
1.4315559983
1.4305700335
1.4297876268
1.4291825617
1.4287352104
1.4284309711
1.4282546749
1.4281824685
1.4281777797
1.4281302645
1.0767550031
1.0772655328
1.0778968387
1.0788819932
1.0799613430
1.0809069556
1.0815367247
1.0817054586
1.0812792693
1.0801036011
1.0779737925
1.0746222366
1.0697487856
1.0631169026
1.0547169676
1.0449378932
1.0346112723
1.0248165146
1.0165039409
1.0101753677
1.0058238374
1.0030996410
1.0015357256
1.0007083287
1.0003038711
1.0001210386
1.0000446593
1.0000152204
1.0000047753
1.0000013739
1.0000003608
1.0000000860
1.0000000186
1.0000000042
1.0000000014
1.4478277463
1.4422439910
1.4419053938
1.4411937044
1.4401292669
1.4387649192
1.4371884148
1.4355121184
1.4338512441
1.4323020076
1.4309266636
1.4297502747
1.4287691325
1.4279641965
1.4273146663
1.4268070994
1.4264371677
1.4262059060
1.4261096862
1.4261247673
1.4261941701
1.4259587050
1.0786027066
1.0786962942
1.0797818220
1.0814100923
1.0831798088
1.0847868136
1.0860255401
1.0867651115
1.0869095221
1.0863517212
1.0849274994
1.0823795073
1.0783578087
1.0724885220
1.0645363543
1.0546374238
1.0434740015
1.0322061784
1.0220928564
1.0140142678
1.0082323589
1.0044895749
1.0022778284
1.0010762513
1.0004735238
1.0001937856
1.0000736290
1.0000259122
1.0000084225
1.0000025201
1.0000006915
1.0000001732
1.0000000396
1.0000000096
1.0000000035
1.4406727125
1.4349329375
1.4348132939
1.4345029950
1.4339767444
1.4332320746
1.4323008239
1.4312468584
1.4301493033
1.4290820842
1.4280974296
1.4272196944
1.4264511316
1.4257838785
1.4252130811
1.4247460258
1.4244034322
1.4242134927
1.4241958532
1.4243331766
1.4245356114
1.4241694394
1.0787169439
1.0784241673
1.0802872374
1.0828767290
1.0855714911
1.0879731542
1.0898621613
1.0911413604
1.0917745185
1.0917256837
1.0908995399
1.0890866716
1.0859356085
1.0809856380
1.0738036372
1.0642400194
1.0527140598
1.0403153945
1.0285193700
1.0186081221
1.0112106573
1.0062555021
1.0032429858
1.0015652315
1.0007038876
1.0002948006
1.0001148354
1.0000415257
1.0000139056
1.0000042998
1.0000012238
1.0000003194
1.0000000766
1.0000000197
1.0000000077
1.4335639073
1.4277456002
1.4278649078
1.4279936574
1.4280579576
1.4279949166
1.4277730777
1.4273989830
1.4269070283
1.4263421765
1.4257431644
1.4251335873
1.4245244278
1.4239238024
1.4233492321
1.4228373055
1.4224460366
1.4222485429
1.4223112085
1.4226451610
1.4231215469
1.4226836542
1.0766546538
1.0760074647
1.0793096991
1.0834060600
1.0873771957
1.0907468166
1.0933246523
1.0950892854
1.0960967350
1.0964068508
1.0960162625
1.0947925448
1.0924240150
1.0884166502
1.0821906051
1.0733236551
1.0619053029
1.0488095060
1.0355854017
1.0238756420
1.0147446729
1.0084089509
1.0044464876
1.0021869199
1.0010021846
1.0004280478
1.0001702653
1.0000629804
1.0000216188
1.0000068696
1.0000020150
1.0000005440
1.0000001357
1.0000000366
1.0000000150
1.4266513699
1.4208274430
1.4211984184
1.4217901324
1.4224780839
1.4231350676
1.4236603408
1.4239956744
1.4241232684
1.4240533067
1.4238080121
1.4234101034
1.4228813441
1.4222492029
1.4215580961
1.4208810441
1.4203269697
1.4200404150
1.4201813009
1.4208558120
1.4219433588
1.4214855370
1.0715402589
1.0705608214
1.0767072139
1.0832402959
1.0889782071
1.0935004353
1.0967673846
1.0989152692
1.1001394868
1.1006208888
1.1004639392
1.0996309605
1.0978790356
1.0947265419
1.0895048058
1.0815639963
1.0706495773
1.0573127773
1.0430171897
1.0296635018
1.0187696433
1.0109313815
1.0058873727
1.0029446161
1.0013715066
1.0005955381
1.0002410336
1.0000908331
1.0000318172
1.0000103370
1.0000031072
1.0000008620
1.0000002218
1.0000000623
1.0000000265
1.4200793395
1.4143137131
1.4149409093
1.4160040638
1.4173270578
1.4187159316
1.4199965179
1.4210404140
1.4217720858
1.4221625554
1.4222151234
1.4219509996
1.4214028605
1.4206173483
1.4196650999
1.4186566914
1.4177619912
1.4172313557
1.4174054839
1.4186655109
1.4211782481
1.4207383621
1.0616830400
1.0603662727
1.0724193162
1.0829154102
1.0909984292
1.0967691057
1.1006096631
1.1029462377
1.1041686204
1.1045965260
1.1044459060
1.1037774372
1.1024307475
1.0999683553
1.0956847435
1.0887617389
1.0786289362
1.0654613985
1.0504974886
1.0357555868
1.0231671453
1.0137685379
1.0075439826
1.0038305388
1.0018093177
1.0007965552
1.0003269995
1.0001250954
1.0000445343
1.0000147262
1.0000045132
1.0000012792
1.0000003374
1.0000000977
1.0000000428
1.4139786813
1.4083225467
1.4092019257
1.4107287928
1.4126755393
1.4147807469
1.4167949976
1.4185169745
1.4198104072
1.4206046332
1.4208822471
1.4206612484
1.4199821009
1.4189042780
1.4175138203
1.4159448657
1.4144198886
1.4133207799
1.4133066152
1.4154721196
1.4213958391
1.4209950037
1.0448929770
1.0431964462
1.0674273473
1.0838501055
1.0945366739
1.1012771683
1.1053100048
1.1074835808
1.1084048281
1.1085204261
1.1081390002
1.1074054016
1.1062392964
1.1042629950
1.1007730533
1.0948415882
1.0856355665
1.0729516063
1.0577078780
1.0418954341
1.0277708451
1.0168288168
1.0093710438
1.0048236815
1.0023062324
1.0010270396
1.0004264756
1.0001651016
1.0000595240
1.0000199530
1.0000062066
1.0000017882
1.0000004805
1.0000001424
1.0000000638
1.4084618264
1.4029510312
1.4040700629
1.4060370066
1.4085742124
1.4113541309
1.4140529855
1.4163969042
1.4181888237
1.4193159840
1.4197391625
1.4194701630
1.4185501723
1.4170369735
1.4150051676
1.4125677092
1.4099366540
1.4075754672
1.4065899000
1.4097402281
1.4239625008
1.4236071681
1.0282460720
1.0262038879
1.0688612907
1.0901493284
1.1016296490
1.1079702023
1.1112950909
1.1127270497
1.1129626787
1.1124892876
1.1116524050
1.1106462707
1.1094529505
1.1077554272
1.1048762431
1.0998267545
1.0915728987
1.0795679428
1.0643676442
1.0478159246
1.0323805095
1.0199867299
1.0112991081
1.0058886454
1.0028452217
1.0012791883
1.0005360564
1.0002094416
1.0000762353
1.0000258153
1.0000081182
1.0000023669
1.0000006447
1.0000001943
1.0000000884
1.4036188551
1.3982725908
1.3996108909
1.4019797258
1.4050543510
1.4084446888
1.4117564499
1.4146468696
1.4168611233
1.4182462254
1.4187410451
1.4183476647
1.4170980370
1.4150252117
1.4121399743
1.4084103742
1.4037296900
1.3978334157
1.3900595319
1.3785967340
1.3579450567
1.2964711288
1.2043235618
1.2005996300
1.1393123841
1.1074395277
1.1070955915
1.1113086648
1.1151403963
1.1176003388
1.1186707830
1.1186144026
1.1177671243
1.1164644312
1.1149978505
1.1135631040
1.1121787971
1.1105798554
1.1081260176
1.1038038864
1.0964365598
1.0851896151
1.0702607466
1.0532697482
1.0367826937
1.0230924820
1.0132376623
1.0069762807
1.0034016416
1.0015414293
1.0006506229
1.0002559792
1.0000938282
1.0000320025
1.0000101403
1.0000029805
1.0000008191
1.0000002495
1.0000001146
1.3995166799
1.3943375558
1.3958679789
1.3985881897
1.4021309096
1.4060495043
1.4098859844
1.4132355605
1.4157916896
1.4173655685
1.4178764123
1.4173165780
1.4157069712
1.4130538385
1.4093066884
1.4043118190
1.3977404830
1.3889448769
1.3766607578
1.3583888556
1.3291809843
1.2761381213
1.2026944243
1.1989034591
1.1663905174
1.1413954427
1.1318346066
1.1287901733
1.1278194791
1.1271158767
1.1260314075
1.1244348650
1.1224332644
1.1202371416
1.1180791213
1.1161428346
1.1144696575
1.1128381148
1.1106489344
1.1068879399
1.1002840764
1.0897773550
1.0752449819
1.0580521180
1.0407727649
1.0259860787
1.0150820785
1.0080266182
1.0039444079
1.0017989154
1.0007635726
1.0003019667
1.0001112302
1.0000381218
1.0000121382
1.0000035854
1.0000009905
1.0000003036
1.0000001403
1.3962013646
1.3911766609
1.3928666330
1.3958780048
1.3998071364
1.4041590883
1.4084216791
1.4121377117
1.4149573930
1.4166624677
1.4171565365
1.4164248605
1.4144808583
1.4113130161
1.4068333368
1.4008248448
1.3928744325
1.3822648802
1.3678130725
1.3476706205
1.3192432987
1.2788877025
1.2320630225
1.2098832894
1.1841755599
1.1629766394
1.1502293571
1.1430797432
1.1387469767
1.1355440016
1.1326241700
1.1296546065
1.1265967521
1.1235694279
1.1207558543
1.1183251490
1.1163334838
1.1145947906
1.1125489922
1.1091945063
1.1032030729
1.0933484276
1.0792440811
1.0620103452
1.0441721296
1.0285124104
1.0167231714
1.0089739074
1.0044383946
1.0020346094
1.0008672998
1.0003442552
1.0001272276
1.0000437371
1.0000139654
1.0000041360
1.0000011455
1.0000003520
1.0000001631
1.3937010199
1.3888048149
1.3906177161
1.3938529818
1.3980782595
1.4027605486
1.4073451970
1.4113342803
1.4143448348
1.4161365595
1.4166021197
1.4157229506
1.4135095276
1.4099424955
1.4049179251
1.3981985510
1.3893654347
1.3777599857
1.3624386674
1.3422065082
1.3158864250
1.2829267648
1.2473954296
1.2212354387
1.1973015968
1.1774750300
1.1633427744
1.1538331862
1.1472511099
1.1422251739
1.1378987380
1.1338457996
1.1299392115
1.1262348591
1.1228791776
1.1200288714
1.1177499880
1.1158836794
1.1139031488
1.1108241913
1.1052870053
1.0959510093
1.0822311832
1.0650426419
1.0468388305
1.0305349668
1.0180580989
1.0097533713
1.0048480189
1.0022309951
1.0009539503
1.0003796079
1.0001405890
1.0000484151
1.0000154810
1.0000045899
1.0000012721
1.0000003910
1.0000001812
1.3920308137
1.3872267834
1.3891232304
1.3925104443
1.3969362206
1.4018413140
1.4066419476
1.4108125088
1.4139478006
1.4157931724
1.4162348156
1.4152529622
1.4128583267
1.4090302369
1.4036614890
1.3965150260
1.3871920994
1.3751095270
1.3595199150
1.3396404172
1.3149869997
1.2859883659
1.2555503896
1.2291974233
1.2059323732
1.1865528043
1.1717268841
1.1609067056
1.1529525740
1.1467479264
1.1414839081
1.1366989639
1.1322152881
1.1280480704
1.1243184984
1.1211740840
1.1186870655
1.1167173911
1.1147626576
1.1118543733
1.1066175476
1.0976410687
1.0842083825
1.0670885525
1.0486704082
1.0319455440
1.0190003972
1.0103084164
1.0051414360
1.0023721848
1.0010163656
1.0004050832
1.0001502076
1.0000517743
1.0000165649
1.0000049124
1.0000013613
1.0000004182
1.0000001936
1.3911979162
1.3864425132
1.3883814181
1.3918458281
1.3963734139
1.4013915808
1.4063018168
1.4105646287
1.4137638661
1.4156381074
1.4160709865
1.4150431483
1.4125669002
1.4086230708
1.4031059662
1.3957830445
1.3862711320
1.3740294147
1.3584059836
1.3387982012
1.3149898812
1.2876833002
1.2592348690
1.2331826922
1.2101781174
1.1908940484
1.1757220942
1.1642755410
1.1556503422
1.1488639109
1.1431423002
1.1380087248
1.1332570938
1.1288783630
1.1249784291
1.1216990723
1.1191156714
1.1170984217
1.1151585514
1.1123373363
1.1072544051
1.0984653379