<VTKFile type="UnstructuredGrid" version="0.1">
	<UnstructuredGrid>
		<Piece NumberOfPoints="13548" NumberOfCells="3387">
			<CellData>
				<DataArray type="Int32" Name="ghost" NumberOfComponents="1" Format="ascii">
1
1
1
1
1
1
1
1
1
1
1
1
1
1
1
1
1
1
1
1
1
1
1
1
1
1
1
1
1
1
1
1
1
1
1
1
1
1
1
1
1
1
1
1
1
1
1
1
1
1
1
1
1
1
1
1
1
1
0
0
0
0
0
0
0
0
0
0
0
0
0
0
0
0
0
0
0
0
1
1
0
0
0
0
0
0
0
0
0
0
0
0
0
0
0
0
0
0
0
0
0
0
0
0
0
0
0
0
0
0
0
0
0
1
1
0
0
0
0
0
0
0
0
0
0
0
0
0
0
0
0
0
0
0
0
1
1
0
0
0
0
0
0
0
0
0
0
0
0
0
0
0
0
0
0
0
0
0
0
0
0
0
0
0
0
0
0
0
0
0
1
1
0
0
0
0
0
0
0
0
0
0
0
0
0
0
0
0
0
0
0
0
1
1
0
0
0
0
0
0
0
0
0
0
0
0
0
0
0
0
0
0
0
0
0
0
0
0
0
0
0
0
0
0
0
0
0
1
1
0
0
0
0
0
0
0
0
0
0
0
0
0
0
0
0
0
0
0
0
1
1
0
0
0
0
0
0
0
0
0
0
0
0
0
0
0
0
0
0
0
0
0
0
0
0
0
0
0
0
0
0
0
0
0
1
1
0
0
0
0
0
0
0
0
0
0
0
0
0
0
0
0
0
0
0
0
1
1
0
0
0
0
0
0
0
0
0
0
0
0
0
0
0
0
0
0
0
0
0
0
0
0
0
0
0
0
0
0
0
0
0
1
1
0
0
0
0
0
0
0
0
0
0
0
0
0
0
0
0
0
0
0
0
1
1
0
0
0
0
0
0
0
0
0
0
0
0
0
0
0
0
0
0
0
0
0
0
0
0
0
0
0
0
0
0
0
0
0
1
1
0
0
0
0
0
0
0
0
0
0
0
0
0
0
0
0
0
0
0
0
1
1
0
0
0
0
0
0
0
0
0
0
0
0
0
0
0
0
0
0
0
0
0
0
0
0
0
0
0
0
0
0
0
0
0
1
1
0
0
0
0
0
0
0
0
0
0
0
0
0
0
0
0
0
0
0
0
1
1
0
0
0
0
0
0
0
0
0
0
0
0
0
0
0
0
0
0
0
0
0
0
0
0
0
0
0
0
0
0
0
0
0
1
1
0
0
0
0
0
0
0
0
0
0
0
0
0
0
0
0
0
0
0
0
1
1
0
0
0
0
0
0
0
0
0
0
0
0
0
0
0
0
0
0
0
0
0
0
0
0
0
0
0
0
0
0
0
0
0
1
1
0
0
0
0
0
0
0
0
0
0
0
0
0
0
0
0
0
0
0
0
1
1
0
0
0
0
0
0
0
0
0
0
0
0
0
0
0
0
0
0
0
0
0
0
0
0
0
0
0
0
0
0
0
0
0
1
1
0
0
0
0
0
0
0
0
0
0
0
0
0
0
0
0
0
0
0
0
1
1
0
0
0
0
0
0
0
0
0
0
0
0
0
0
0
0
0
0
0
0
0
0
0
0
0
0
0
0
0
0
0
0
0
1
1
0
0
0
0
0
0
0
0
0
0
0
0
0
0
0
0
0
0
0
0
1
1
0
0
0
0
0
0
0
0
0
0
0
0
0
0
0
0
0
0
0
0
0
0
0
0
0
0
0
0
0
0
0
0
0
1
1
0
0
0
0
0
0
0
0
0
0
0
0
0
0
0
0
0
0
0
0
1
1
0
0
0
0
0
0
0
0
0
0
0
0
0
0
0
0
0
0
0
0
0
0
0
0
0
0
0
0
0
0
0
0
0
1
1
0
0
0
0
0
0
0
0
0
0
0
0
0
0
0
0
0
0
0
0
1
1
0
0
0
0
0
0
0
0
0
0
0
0
0
0
0
0
0
0
0
0
0
0
0
0
0
0
0
0
0
0
0
0
0
1
1
0
0
0
0
0
0
0
0
0
0
0
0
0
0
0
0
0
0
0
0
1
1
0
0
0
0
0
0
0
0
0
0
0
0
0
0
0
0
0
0
0
0
0
0
0
0
0
0
0
0
0
0
0
0
0
1
1
0
0
0
0
0
0
0
0
0
0
0
0
0
0
0
0
0
0
0
0
1
1
0
0
0
0
0
0
0
0
0
0
0
0
0
0
0
0
0
0
0
0
0
0
0
0
0
0
0
0
0
0
0
0
0
1
1
0
0
0
0
0
0
0
0
0
0
0
0
0
0
0
0
0
0
0
0
1
1
0
0
0
0
0
0
0
0
0
0
0
0
0
0
0
0
0
0
0
0
0
0
0
0
0
0
0
0
0
0
0
0
0
1
1
0
0
0
0
0
0
0
0
0
0
0
0
0
0
0
0
0
0
0
0
1
1
0
0
0
0
0
0
0
0
0
0
0
0
0
0
0
0
0
0
0
0
0
0
0
0
0
0
0
0
0
0
0
0
0
1
1
0
0
0
0
0
0
0
0
0
0
0
0
0
0
0
0
0
0
0
0
1
1
0
0
0
0
0
0
0
0
0
0
0
0
0
0
0
0
0
0
0
0
0
0
0
0
0
0
0
0
0
0
0
0
0
1
1
0
0
0
0
0
0
0
0
0
0
0
0
0
0
0
0
0
0
0
0
1
1
0
0
0
0
0
0
0
0
0
0
0
0
0
0
0
0
0
0
0
0
0
0
0
0
0
0
0
0
0
0
0
0
0
1
1
0
0
0
0
0
0
0
0
0
0
0
0
0
0
0
0
0
0
0
0
1
1
0
0
0
0
0
0
0
0
0
0
0
0
0
0
0
0
0
0
0
0
0
0
0
0
0
0
0
0
0
0
0
0
0
1
1
0
0
0
0
0
0
0
0
0
0
0
0
0
0
0
0
0
0
0
0
1
1
0
0
0
0
0
0
0
0
0
0
0
0
0
0
0
0
0
0
0
0
0
0
0
0
0
0
0
0
0
0
0
0
0
1
1
0
0
0
0
0
0
0
0
0
0
0
0
0
0
0
0
0
0
0
0
1
1
0
0
0
0
0
0
0
0
0
0
0
0
0
0
0
0
0
0
0
0
0
0
0
0
0
0
0
0
0
0
0
0
0
1
1
0
0
0
0
0
0
0
0
0
0
0
0
0
0
0
0
0
0
0
0
1
1
0
0
0
0
0
0
0
0
0
0
0
0
0
0
0
0
0
0
0
0
0
0
0
0
0
0
0
0
0
0
0
0
0
1
1
0
0
0
0
0
0
0
0
0
0
0
0
0
0
0
0
0
0
0
0
0
1
1
0
0
0
0
0
0
0
0
0
0
0
0
0
0
0
0
0
0
0
0
0
0
0
0
0
0
0
0
0
0
0
0
0
0
1
1
0
0
0
0
0
0
0
0
0
0
0
0
0
0
0
0
0
0
0
0
0
0
0
0
0
0
0
0
0
0
0
0
0
0
0
0
0
0
0
0
0
0
0
0
0
0
0
0
0
0
0
0
0
0
0
0
0
1
1
0
0
0
0
0
0
0
0
0
0
0
0
0
0
0
0
0
0
0
0
0
0
0
0
0
0
0
0
0
0
0
0
0
0
0
0
0
0
0
0
0
0
0
0
0
0
0
0
0
0
0
0
0
0
0
0
0
1
1
0
0
0
0
0
0
0
0
0
0
0
0
0
0
0
0
0
0
0
0
0
0
0
0
0
0
0
0
0
0
0
0
0
0
0
0
0
0
0
0
0
0
0
0
0
0
0
0
0
0
0
0
0
0
0
0
0
1
1
0
0
0
0
0
0
0
0
0
0
0
0
0
0
0
0
0
0
0
0
0
0
0
0
0
0
0
0
0
0
0
0
0
0
0
0
0
0
0
0
0
0
0
0
0
0
0
0
0
0
0
0
0
0
0
0
0
1
1
0
0
0
0
0
0
0
0
0
0
0
0
0
0
0
0
0
0
0
0
0
0
0
0
0
0
0
0
0
0
0
0
0
0
0
0
0
0
0
0
0
0
0
0
0
0
0
0
0
0
0
0
0
0
0
0
0
1
1
0
0
0
0
0
0
0
0
0
0
0
0
0
0
0
0
0
0
0
0
0
0
0
0
0
0
0
0
0
0
0
0
0
0
0
0
0
0
0
0
0
0
0
0
0
0
0
0
0
0
0
0
0
0
0
0
0
1
1
0
0
0
0
0
0
0
0
0
0
0
0
0
0
0
0
0
0
0
0
0
0
0
0
0
0
0
0
0
0
0
0
0
0
0
0
0
0
0
0
0
0
0
0
0
0
0
0
0
0
0
0
0
0
0
0
0
1
1
0
0
0
0
0
0
0
0
0
0
0
0
0
0
0
0
0
0
0
0
0
0
0
0
0
0
0
0
0
0
0
0
0
0
0
0
0
0
0
0
0
0
0
0
0
0
0
0
0
0
0
0
0
0
0
0
0
1
1
0
0
0
0
0
0
0
0
0
0
0
0
0
0
0
0
0
0
0
0
0
0
0
0
0
0
0
0
0
0
0
0
0
0
0
0
0
0
0
0
0
0
0
0
0
0
0
0
0
0
0
0
0
0
0
0
0
1
1
0
0
0
0
0
0
0
0
0
0
0
0
0
0
0
0
0
0
0
0
0
0
0
0
0
0
0
0
0
0
0
0
0
0
0
0
0
0
0
0
0
0
0
0
0
0
0
0
0
0
0
0
0
0
0
0
0
1
1
0
0
0
0
0
0
0
0
0
0
0
0
0
0
0
0
0
0
0
0
0
1
1
0
0
0
0
0
0
0
0
0
0
0
0
0
0
0
0
0
0
0
0
0
0
0
0
0
0
0
0
0
0
0
0
0
0
1
1
0
0
0
0
0
0
0
0
0
0
0
0
0
0
0
0
0
0
0
0
1
1
0
0
0
0
0
0
0
0
0
0
0
0
0
0
0
0
0
0
0
0
0
0
0
0
0
0
0
0
0
0
0
0
0
1
1
0
0
0
0
0
0
0
0
0
0
0
0
0
0
0
0
0
0
0
0
1
1
0
0
0
0
0
0
0
0
0
0
0
0
0
0
0
0
0
0
0
0
0
0
0
0
0
0
0
0
0
0
0
0
0
1
1
0
0
0
0
0
0
0
0
0
0
0
0
0
0
0
0
0
0
0
0
1
1
0
0
0
0
0
0
0
0
0
0
0
0
0
0
0
0
0
0
0
0
0
0
0
0
0
0
0
0
0
0
0
0
0
1
1
0
0
0
0
0
0
0
0
0
0
0
0
0
0
0
0
0
0
0
0
1
1
0
0
0
0
0
0
0
0
0
0
0
0
0
0
0
0
0
0
0
0
0
0
0
0
0
0
0
0
0
0
0
0
0
1
1
0
0
0
0
0
0
0
0
0
0
0
0
0
0
0
0
0
0
0
0
1
1
0
0
0
0
0
0
0
0
0
0
0
0
0
0
0
0
0
0
0
0
0
0
0
0
0
0
0
0
0
0
0
0
0
1
1
0
0
0
0
0
0
0
0
0
0
0
0
0
0
0
0
0
0
0
0
1
1
0
0
0
0
0
0
0
0
0
0
0
0
0
0
0
0
0
0
0
0
0
0
0
0
0
0
0
0
0
0
0
0
0
1
1
0
0
0
0
0
0
0
0
0
0
0
0
0
0
0
0
0
0
0
0
1
1
0
0
0
0
0
0
0
0
0
0
0
0
0
0
0
0
0
0
0
0
0
0
0
0
0
0
0
0
0
0
0
0
0
1
1
0
0
0
0
0
0
0
0
0
0
0
0
0
0
0
0
0
0
0
0
1
1
0
0
0
0
0
0
0
0
0
0
0
0
0
0
0
0
0
0
0
0
0
0
0
0
0
0
0
0
0
0
0
0
0
1
1
0
0
0
0
0
0
0
0
0
0
0
0
0
0
0
0
0
0
0
0
1
1
0
0
0
0
0
0
0
0
0
0
0
0
0
0
0
0
0
0
0
0
0
0
0
0
0
0
0
0
0
0
0
0
0
1
1
0
0
0
0
0
0
0
0
0
0
0
0
0
0
0
0
0
0
0
0
1
1
0
0
0
0
0
0
0
0
0
0
0
0
0
0
0
0
0
0
0
0
0
0
0
0
0
0
0
0
0
0
0
0
0
1
1
0
0
0
0
0
0
0
0
0
0
0
0
0
0
0
0
0
0
0
0
1
1
0
0
0
0
0
0
0
0
0
0
0
0
0
0
0
0
0
0
0
0
0
0
0
0
0
0
0
0
0
0
0
0
0
1
1
0
0
0
0
0
0
0
0
0
0
0
0
0
0
0
0
0
0
0
0
1
1
0
0
0
0
0
0
0
0
0
0
0
0
0
0
0
0
0
0
0
0
0
0
0
0
0
0
0
0
0
0
0
0
0
1
1
0
0
0
0
0
0
0
0
0
0
0
0
0
0
0
0
0
0
0
0
1
1
0
0
0
0
0
0
0
0
0
0
0
0
0
0
0
0
0
0
0
0
0
0
0
0
0
0
0
0
0
0
0
0
0
1
1
0
0
0
0
0
0
0
0
0
0
0
0
0
0
0
0
0
0
0
0
1
1
0
0
0
0
0
0
0
0
0
0
0
0
0
0
0
0
0
0
0
0
0
0
0
0
0
0
0
0
0
0
0
0
0
1
1
0
0
0
0
0
0
0
0
0
0
0
0
0
0
0
0
0
0
0
0
1
1
0
0
0
0
0
0
0
0
0
0
0
0
0
0
0
0
0
0
0
0
0
0
0
0
0
0
0
0
0
0
0
0
0
1
1
0
0
0
0
0
0
0
0
0
0
0
0
0
0
0
0
0
0
0
0
1
1
0
0
0
0
0
0
0
0
0
0
0
0
0
0
0
0
0
0
0
0
0
0
0
0
0
0
0
0
0
0
0
0
0
1
1
0
0
0
0
0
0
0
0
0
0
0
0
0
0
0
0
0
0
0
0
1
1
0
0
0
0
0
0
0
0
0
0
0
0
0
0
0
0
0
0
0
0
0
0
0
0
0
0
0
0
0
0
0
0
0
1
1
0
0
0
0
0
0
0
0
0
0
0
0
0
0
0
0
0
0
0
0
1
1
0
0
0
0
0
0
0
0
0
0
0
0
0
0
0
0
0
0
0
0
0
0
0
0
0
0
0
0
0
0
0
0
0
1
1
0
0
0
0
0
0
0
0
0
0
0
0
0
0
0
0
0
0
0
0
1
1
0
0
0
0
0
0
0
0
0
0
0
0
0
0
0
0
0
0
0
0
0
0
0
0
0
0
0
0
0
0
0
0
0
1
1
0
0
0
0
0
0
0
0
0
0
0
0
0
0
0
0
0
0
0
0
1
1
0
0
0
0
0
0
0
0
0
0
0
0
0
0
0
0
0
0
0
0
0
0
0
0
0
0
0
0
0
0
0
0
0
1
1
0
0
0
0
0
0
0
0
0
0
0
0
0
0
0
0
0
0
0
0
1
1
0
0
0
0
0
0
0
0
0
0
0
0
0
0
0
0
0
0
0
0
0
0
0
0
0
0
0
0
0
0
0
0
0
1
1
1
1
1
1
1
1
1
1
1
1
1
1
1
1
1
1
1
1
1
1
1
1
1
1
1
1
1
1
1
1
1
1
1
1
1
1
1
1
1
1
1
1
1
1
1
1
1
1
1
1
1
1
1
1
1
1
				</DataArray>
				<DataArray type="Float64" Name="h" NumberOfComponents="1" Format="ascii">
1.2000213503
1.2013563277
1.2012490254
1.2010367675
1.2007243028
1.2003185808
1.1998286573
1.1992655681
1.1986420661
1.1979724673
1.1972724011
1.1965584685
1.1958479982
1.1951586398
1.1945079104
1.1939128043
1.1933892215
1.1929514510
1.1926117215
1.1923796553
1.1922619193
1.1922619193
1.2110616955
1.2091995863
1.2091325315
1.2090000842
1.2088046818
1.2085498985
1.2082402974
1.2078811695
1.2074783932
1.2070382494
1.2065672126
1.2060717810
1.2055583765
1.2050332893
1.2045024979
1.2039715914
1.2034459533
1.2029316515
1.2024345847
1.2019594823
1.2015108057
1.2010926857
1.2007088304
1.2003621939
1.2000548863
1.1997879973
1.1995614006
1.1993738471
1.1992230130
1.1991057308
1.1990183998
1.1989572575
1.1989189069
1.1989007772
1.1989007772
1.2013563277
1.2026382300
1.2025334504
1.2023262099
1.2020212279
1.2016253997
1.2011476915
1.2005990065
1.1999919070
1.1993404493
1.1986599284
1.1979665305
1.1972770898
1.1966086918
1.1959782384
1.1954020815
1.1948954809
1.1944721254
1.1941437178
1.1939194543
1.1938057034
1.1922619193
1.2091995863
1.2073494426
1.2072877717
1.2071661105
1.2069870013
1.2067541754
1.2064724063
1.2061472529
1.2057849143
1.2053920374
1.2049755008
1.2045422288
1.2040990632
1.2036526676
1.2032092920
1.2027747136
1.2023546769
1.2019554386
1.2015820678
1.2012386145
1.2009286120
1.2006548905
1.2004194954
1.2002233717
1.2000662817
1.1999466770
1.1998615801
1.1998067513
1.1997768458
1.1997657659
1.1997671809
1.1997749285
1.1997836708
1.1997894629
1.1989007772
1.2011262763
1.2023812208
1.2022759100
1.2020676027
1.2017610168
1.2013630494
1.2008826780
1.2003308321
1.1997201189
1.1990646606
1.1983798404
1.1976819504
1.1969879464
1.1963150443
1.1956802796
1.1951001357
1.1945899963
1.1941636616
1.1938329304
1.1936070744
1.1934925148
1.1919589186
1.2092917360
1.2074487481
1.2073867533
1.2072644333
1.2070843198
1.2068501280
1.2065666107
1.2062393038
1.2058743824
1.2054784717
1.2050584345
1.2046211889
1.2041735840
1.2037223059
1.2032736445
1.2028334451
1.2024075790
1.2020024121
1.2016231035
1.2012738574
1.2009583616
1.2006795869
1.2004397025
1.2002397484
1.2000795425
1.1999575512
1.1998707749
1.1998149118
1.1997845164
1.1997733599
1.1997749639
1.1997830165
1.1997920477
1.1997980131
1.1989093750
1.2006789654
1.2018808770
1.2017745514
1.2015642042
1.2012545463
1.2008524736
1.2003669793
1.1998090373
1.1991913352
1.1985281181
1.1978349353
1.1971282833
1.1964253535
1.1957436182
1.1951003771
1.1945123771
1.1939952504
1.1935630232
1.1932276899
1.1929986767
1.1928825129
1.1913695266
1.2094587103
1.2076303223
1.2075678895
1.2074446639
1.2072631416
1.2070269848
1.2067408798
1.2064102874
1.2060413047
1.2056404828
1.2052146241
1.2047706078
1.2043152740
1.2038553354
1.2033971437
1.2029466789
1.2025100622
1.2020938540
1.2017034019
1.2013432225
1.2010173094
1.2007289241
1.2004804862
1.2002732395
1.2001071314
1.1999806710
1.1998908148
1.1998331324
1.1998019727
1.1997908426
1.1997929669
1.1998017353
1.1998114139
1.1998177609
1.1989290843
1.2000240770
1.2011489610
1.2010412505
1.2008281124
1.2005142373
1.2001065045
1.1996139114
1.1990474763
1.1984199819
1.1977458319
1.1970407995
1.1963216646
1.1956059532
1.1949115080
1.1942560171
1.1936566178
1.1931293173
1.1926884852
1.1923464155
1.1921127733
1.1919942552
1.1905120178
1.2096936146
1.2078874053
1.2078244298
1.2077000732
1.2075167747
1.2072781127
1.2069886665
1.2066537777
1.2062794166
1.2058720140
1.2054382722
1.2049850022
1.2045190209
1.2040470678
1.2035755836
1.2031107561
1.2026590776
1.2022273414
1.2018211848
1.2014456065
1.2011050260
1.2008031325
1.2005427130
1.2003253065
1.2001510517
1.2000185185
1.1999245942
1.1998646535
1.1998327367
1.1998219575
1.1998251002
1.1998351135
1.1998458737
1.1998528475
1.1989637848
1.1991752339
1.2002020032
1.2000926956
1.1998763264
1.1995575407
1.1991431695
1.1986421818
1.1980656140
1.1974263317
1.1967389022
1.1960193519
1.1952847965
1.1945531727
1.1938427904
1.1931718377
1.1925579656
1.1920176811
1.1915658193
1.1912150853
1.1909754745
1.1908539167
1.1894120658
1.2099863582
1.2082100874
1.2081464829
1.2080208094
1.2078354345
1.2075938286
1.2073004333
1.2069604335
1.2065796336
1.2061643045
1.2057210144
1.2052564815
1.2047774851
1.2042907915
1.2038029721
1.2033204939
1.2028502916
1.2023994505
1.2019739670
1.2015794783
1.2012209517
1.2009025968
1.2006276729
1.2003980892
1.2002142159
1.2000746910
1.1999763011
1.1999141578
1.1998818933
1.1998721047
1.1998770012
1.1998889563
1.1999013390
1.1999092374
1.1990190647
1.1981493739
1.1990604547
1.1989495252
1.1987298524
1.1984059988
1.1979846962
1.1974748286
1.1968873958
1.1962352997
1.1955332427
1.1947974975
1.1940455360
1.1932957531
1.1925669995
1.1918780603
1.1912472138
1.1906915924
1.1902266235
1.1898655439
1.1896187816
1.1894935749
1.1881009945
1.2103242132
1.2085858539
1.2085215580
1.2083944343
1.2082067715
1.2079619184
1.2076641582
1.2073184935
1.2069305321
1.2065063541
1.2060523667
1.2055751732
1.2050815033
1.2045781591
1.2040718716
1.2035695164
1.2030783730
1.2026059338
1.2021587196
1.2017430152
1.2013644626
1.2010278794
1.2007370535
1.2004943263
1.2003003190
1.2001537280
1.2000512005
1.1999875163
1.1999558033
1.1999480275
1.1999556988
1.1999704937
1.1999851676
1.1999943509
1.1991018702
1.1969656206
1.1977473103
1.1976349312
1.1974122711
1.1970837597
1.1966559613
1.1961375937
1.1955395352
1.1948746441
1.1941576913
1.1934051522
1.1926348376
1.1918656151
1.1911169234
1.1904082216
1.1897585194
1.1891856976
1.1887059103
1.1883330586
1.1880781206
1.1879487312
1.1866132840
1.2106932043
1.2090009554
1.2089359257
1.2088072649
1.2086171869
1.2083689188
1.2080665782
1.2077149729
1.2073194955
1.2068860139
1.2064207534
1.2059301856
1.2054209824
1.2048999990
1.2043742122
1.2038507201
1.2033375101
1.2028422365
1.2023721882
1.2019343367
1.2015350328
1.2011797683
1.2008729017
1.2006172311
1.2004136308
1.2002608288
1.2001552860
1.2000913807
1.2000616464
1.2000573134
1.2000690824
1.2000878251
1.2001055909
1.2001164837
1.1992199478
1.1956450308
1.1962875894
1.1961741228
1.1959491664
1.1956169570
1.1951838062
1.1946581629
1.1940506716
1.1933740347
1.1926429888
1.1918741288
1.1910855495
1.1902965701
1.1895272335
1.1887977276
1.1881278847
1.1875364565
1.1870404671
1.1866546326
1.1863906205
1.1862565721
1.1849848682
1.2110782014
1.2094404891
1.2093746988
1.2092444555
1.2090519175
1.2088002078
1.2084932895
1.2081357776
1.2077328431
1.2072901300
1.2068136660
1.2063097797
1.2057850863
1.2052465145
1.2047011863
1.2041566971
1.2036214368
1.2031035606
1.2026110186
1.2021515490
1.2017322336
1.2013592493
1.2010375407
1.2007703667
1.2005588286
1.2004016448
1.2002950358
1.2002329088
1.2002071199
1.2002080718
1.2002255615
1.2002495664
1.2002713528
1.2002844422
1.1993815019
1.1942099858
1.1947075207
1.1945934973
1.1943672699
1.1940328137
1.1935960908
1.1930651607
1.1924502984
1.1917639093
1.1910205592
1.1902368424
1.1894310431
1.1886228723
1.1878329608
1.1870822549
1.1863914870
1.1857804022
1.1852670519
1.1848671450
1.1845932125
1.1844540443
1.1832512506
1.2114637678
1.2098892139
1.2098226394
1.2096907902
1.2094958110
1.2092407632
1.2089294871
1.2085664250
1.2081565339
1.2077052237
1.2072183223
1.2067020003
1.2061628203
1.2056076983
1.2050439469
1.2044798122
1.2039239817
1.2033851506
1.2028719701
1.2023929121
1.2019557977
1.2015674824
1.2012334728
1.2009574675
1.2007407476
1.2005819648
1.2004770407
1.2004193437
1.2003999771
1.2004084388
1.2004335460
1.2004643117
1.2004911604
1.2005069878
1.1995946690
1.1926832972
1.1930334733
1.1929195601
1.1926933583
1.1923585088
1.1919205190
1.1913869264
1.1907674837
1.1900741342
1.1893211065
1.1885248383
1.1877036698
1.1868776050
1.1860678095
1.1852959898
1.1845838408
1.1839522257
1.1834204028
1.1830052918
1.1827205153
1.1825757102
1.1814454284
1.2118356789
1.2103330353
1.2102656260
1.2101321188
1.2099347223
1.2096765127
1.2093612689
1.2089933013
1.2085773609
1.2081186416
1.2076227352
1.2070956643
1.2065437711
1.2059740570
1.2053942957
1.2048131217
1.2042395240
1.2036827835
1.2031522194
1.2026570131
1.2022056929
1.2018057534
1.2014632270
1.2011821903
1.2009640408
1.2008072981
1.2007075213
1.2006574751
1.2006474448
1.2006659612
1.2007008058
1.2007399764
1.2007730155
1.2007921639
1.1998668840
1.1910880223
1.1912916361
1.1911786000
1.1909539212
1.1906208323
1.1901842779
1.1896511346
1.1890304669
1.1883335726
1.1875741508
1.1867682922
1.1859342210
1.1850920929
1.1842635146
1.1834709221
1.1827370176
1.1820839121
1.1815322825
1.1811005403
1.1808037152
1.1806525820
1.1795968169
1.2121811817
1.2107592307
1.2106908635
1.2105555455
1.2103556819
1.2100944924
1.2097757933
1.2094038108
1.2089831451
1.2085187036
1.2080158963
1.2074802436
1.2069183094
1.2063371393
1.2057449688
1.2051504858
1.2045631772
1.2039928475
1.2034494235
1.2029427679
1.2024820581
1.2020753624
1.2017292002
1.2014479013
1.2012329184
1.2010825724
1.2009919917
1.2009532766
1.2009558402
1.2009872004
1.2010340656
1.2010833877
1.2011238037
1.2011468842
1.2002045114
1.1894471051
1.1895076033
1.1893962753
1.1891747483
1.1888457746
1.1884136292
1.1878843868
1.1872662518
1.1865696786
1.1858076200
1.1849955986
1.1841515082
1.1832954667
1.1824493807
1.1816363434
1.1808800850
1.1802040972
1.1796307338
1.1791802728
1.1788696053
1.1787110944
1.1777302900
1.2124898523
1.2111572551
1.2110876554
1.2109501495
1.2107475656
1.2104834727
1.2101618587
1.2097869920
1.2093632192
1.2088951162
1.2083877899
1.2078468038
1.2072784022
1.2066900683
1.2060899040
1.2054869428
1.2048910536
1.2043124946
1.2037618007
1.2032494331
1.2027851356
1.2023774691
1.2020334193
1.2017573925
1.2015508039
1.2014117351
1.2013348149
1.2013114248
1.2013300626
1.2013772031
1.2014384617
1.2014997311
1.2015487358
1.2015763712
1.2006123355
1.1877828329
1.1877058010
1.1875970428
1.1873803627
1.1870579660
1.1866333566
1.1861116698
1.1855000755
1.1848079768
1.1840473450
1.1832328790
1.1823818824
1.1815141911
1.1806518084
1.1798183558
1.1790385688
1.1783374500
1.1777393427
1.1772668995
1.1769395460
1.1767719582
1.1758651028
1.2127549098
1.2115200127
1.2114486110
1.2113080979
1.2111021122
1.2108348856
1.2105107584
1.2101340259
1.2097089174
1.2092397557
1.2087311478
1.2081886732
1.2076184171
1.2070277416
1.2064248493
1.2058190294
1.2052204316
1.2046398073
1.2040881966
1.2035765739
1.2031151770
1.2027129567
1.2023772441
1.2021124824
1.2019199145
1.2017972994
1.2017387138
1.2017347786
1.2017730475
1.2018389364
1.2019169637
1.2019919645
1.2020507554
1.2020835618
1.2010930228
1.1861166919
1.1859093422
1.1858040219
1.1855939028
1.1852805840
1.1848667056
1.1843563341
1.1837554328
1.1830721406
1.1823171937
1.1815041769
1.1806494925
1.1797723811
1.1788946577
1.1780402516
1.1772348079
1.1765049405
1.1758773460
1.1753777384
1.1750290886
1.1748495886
1.1740143709
1.2129734459
1.2118440371
1.2117696802
1.2116244972
1.2114136116
1.2111424226
1.2108159324
1.2104384913
1.2100141698
1.2095469392
1.2090411032
1.2085016344
1.2079345515
1.2073469590
1.2067471791
1.2061446068
1.2055497269
1.2049736849
1.2044279430
1.2039239286
1.2034722612
1.2030821874
1.2027612784
1.2025139070
1.2023410608
1.2022401036
1.2022045089
1.2022241044
1.2022854820
1.2023729964
1.2024700776
1.2025605162
1.2026302356
1.2026688022
1.2016468643
1.1844691624
1.1841398724
1.1840388483
1.1838369922
1.1835352475
1.1831353109
1.1826400627
1.1820540968
1.1813840740
1.1806392258
1.1798316991
1.1789766252
1.1780922491
1.1771997918
1.1763231319
1.1754885949
1.1747244134
1.1740600120
1.1735250635
1.1731476031
1.1729513697
1.1721843528
1.2131472463
1.2121303127
1.2120507790
1.2118978215
1.2116792559
1.2114024131
1.2110732573
1.2106963999
1.2102754207
1.2098137036
1.2093149421
1.2087835289
1.2082250306
1.2076463787
1.2070558352
1.2064629240
1.2058784016
1.2053137271
1.2047807450
1.2042912289
1.2038560917
1.2034847971
1.2031850204
1.2029609763
1.2028133286
1.2027389865
1.2027307812
1.2027777245
1.2028654409
1.2029772328
1.2030954606
1.2032028926
1.2032845796
1.2033294451
1.2022714208
1.1828593918
1.1824172868
1.1823213962
1.1821294708
1.1818417622
1.1814589612
1.1809826644
1.1804159486
1.1797637905
1.1790336421
1.1782358586
1.1773838672
1.1764944062
1.1755875332
1.1746865125
1.1738178844
1.1730112759
1.1722991082
1.1717160915
1.1712975496
1.1710762217
1.1703730277
1.2132842534
1.2123857192
1.2122967677
1.2121304360
1.2118993574
1.2116139132
1.2112813338
1.2109062095
1.2104914336
1.2100392539
1.2095523747
1.2090343737
1.2084901998
1.2079264848
1.2073513767
1.2067745034
1.2062068235
1.2056600916
1.2051464535
1.2046779568
1.2042657327
1.2039194174
1.2036466025
1.2034512862
1.2033337778
1.2032904859
1.2033135692
1.2033912138
1.2035080818
1.2036464413
1.2037876106
1.2039133631
1.2040079032
1.2040595307
1.2029612435
1.1813049490
1.1807595446
1.1806695997
1.1804892318
1.1802179802
1.1798554913
1.1794020076
1.1788589683
1.1782294830
1.1775189581
1.1767355843
1.1758905873
1.1749985589
1.1740776213
1.1731495642
1.1722402575
1.1713800304
1.1706041790
1.1699535185
1.1694737326
1.1692123767
1.1685678634
1.2133997873
1.2126242296
1.2125176565
1.2123279855
1.2120762819
1.2117774491
1.2114400355
1.2110679956
1.2106626849
1.2102246425
1.2097549642
1.2092560751
1.2087321184
1.2081893031
1.2076356411
1.2070808221
1.2065360038
1.2060132038
1.2055248212
1.2050831287
1.2046993890
1.2043835177
1.2041426670
1.2039806180
1.2038973722
1.2038887910
1.2039463428
1.2040573889
1.2042056437
1.2043723687
1.2045378731
1.2046829688
1.2047910432
1.2048497939
1.2037078973
1.1798216463
1.1791825713
1.1790993562
1.1789321248
1.1786797061
1.1783406937
1.1779139448
1.1773991869
1.1767975206
1.1761120751
1.1753485090
1.1745153055
1.1736241589
1.1726902554
1.1717326150
1.1707749012
1.1698465763
1.1689847274
1.1682366936
1.1676622470
1.1673331679
1.1667415752
1.2135192845
1.2128696554
1.2127291595
1.2124984938
1.2122130399
1.2118936727
1.2115495289
1.2111824528
1.2107908310
1.2103723540
1.2099258548
1.2094521155
1.2089543027
1.2084381160
1.2079114375
1.2073840313
1.2068672845
1.2063734727
1.2059152476
1.2055050694
1.2051543044
1.2048730358
1.2046680519
1.2045427594
1.2044968556
1.2045256557
1.2046199404
1.2047662616
1.2049474135
1.2051436855
1.2053344179
1.2054994995
1.2056215336
1.2056876402
1.2044999448
1.1784233641
1.1777001442
1.1776244036
1.1774718195
1.1772405376
1.1769281311
1.1765320971
1.1760504393
1.1754821878
1.1748280264
1.1740907753
1.1732756619
1.1723906803
1.1714468395
1.1704585885
1.1694449236
1.1684313858
1.1674537051
1.1665639668
1.1658389696
1.1653885543
1.1648436196
1.2136837456
1.2131611469
1.2129532397
1.2126503767
1.2123107137
1.2119611978
1.2116087257
1.2112499664
1.2108779277
1.2104858423
1.2100693466
1.2096271728
1.2091613274
1.2086770428
1.2081821309
1.2076865337
1.2072019340
1.2067409262
1.2063164347
1.2059411169
1.2056264592
1.2053825235
1.2052158500
1.2051294765
1.2051227438
1.2051904266
1.2053226350
1.2055051400
1.2057198520
1.2059461328
1.2061624004
1.2063476645
1.2064837827
1.2065573253
1.2053231057
1.1771217266
1.1763236338
1.1762560567
1.1761195290
1.1759115710
1.1756288162
1.1752674932
1.1748239678
1.1742952421
1.1736795310
1.1729766397
1.1721881709
1.1713176752
1.1703706434
1.1693546965
1.1682805781
1.1671645846
1.1660340370
1.1649383233
1.1639686584
1.1632881486
1.1627831906
1.2139605971
1.2135641456
1.2132174065
1.2127875060
1.2123633971
1.2119727477
1.2116127543
1.2112690206
1.2109254676
1.2105687591
1.2101903488
1.2097865872
1.2093583543
1.2089105825
1.2084512339
1.2079906125
1.2075408503
1.2071149639
1.2067262152
1.2063875021
1.2061105359
1.2059050970
1.2057775873
1.2057307805
1.2057636362
1.2058703972
1.2060405276
1.2062590536
1.2065070482
1.2067629978
1.2070044530
1.2072095963
1.2073595835
1.2074404678
1.2061607171
1.1759260114
1.1750619810
1.1750031687
1.1748839409
1.1747012818
1.1744510140
1.1741282652
1.1737279465
1.1732452324
1.1726759929
1.1720172994
1.1712670404
1.1704239020
1.1694867342
1.1684539341
1.1673233625
1.1660937780
1.1647704923
1.1633804611
1.1620078184
1.1608661820
1.1603941178
1.2144675537
1.2141943675
1.2135504909
1.2128986749
1.2123495485
1.2119098120
1.2115500837
1.2112348060
1.2109337120
1.2106246156
1.2102940634
1.2099360776
1.2095507846
1.2091432720
1.2087220553
1.2082981199
1.2078842844
1.2074941451
1.2071414010
1.2068392368
1.2065998854
1.2064324448
1.2063432755
1.2063351015
1.2064064815
1.2065511410
1.2067579303
1.2070111777
1.2072911746
1.2075755947
1.2078411859
1.2080653643
1.2082286366
1.2083165776
1.2069941903
1.1748432619
1.1739218491
1.1738722602
1.1737712908
1.1736154882
1.1734000461
1.1731192431
1.1727668637
1.1723366575
1.1718228256
1.1712199715
1.1705227893
1.1697254521
1.1688199677
1.1677940344
1.1666282568
1.1652932762
1.1637497016
1.1619582381
1.1599202802
1.1578049336
1.1573582317
1.2154250330
1.2152704334
1.2139650632
1.2129332961
1.2122164223
1.2117356675
1.2114001896
1.2111383605
1.2109014620
1.2106566521
1.2103857815
1.2100813870
1.2097438245
1.2093791973
1.2089972268
1.2086100489
1.2082314945
1.2078759573
1.2075577229
1.2072904137
1.2070863675
1.2069547167
1.2069015887
1.2069296099
1.2070369987
1.2072170107
1.2074579334
1.2077434565
1.2080531587
1.2083639757
1.2086519288
1.2088937409
1.2090693316
1.2091638438
1.2078036928
1.1738780612
1.1729074311
1.1728672997
1.1727851209
1.1726571571
1.1724781955
1.1722419865
1.1719416360
1.1715700773
1.1711204661
1.1705859432
1.1699592911
1.1692317373
1.1683902341
1.1674132490
1.1662634131
1.1648750092
1.1631345811
1.1608535666
1.1577452098
1.1534827058
1.1530535676
1.2172742863
1.2172323706
1.2143987580
1.2127471743
1.2118522324
1.2113848569
1.2111328760
1.2109702587
1.2108278224
1.2106688300
1.2104713889
1.2102284744
1.2099424869
1.2096219232
1.2092786339
1.2089265123
1.2085807929
1.2082569180
1.2079699190
1.2077341006
1.2075615340
1.2074616723
1.2074406601
1.2075009445
1.2076404246
1.2078519297
1.2081232421
1.2084374835
1.2087736013
1.2091078813
1.2094157086
1.2096731988
1.2098597586
1.2099601541
1.2085690407
1.1730327287
1.1720206841
1.1719899700
1.1719266008
1.1718267014
1.1716848868
1.1714947290
1.1712491193
1.1709408191
1.1705628487
1.1701083063
1.1695700639
1.1689395475
1.1682035785
1.1673390346
1.1663016076
1.1650013317
1.1632483327
1.1606219090
1.1561406576
1.1474321452
1.1470167407
1.2209435925
1.2210083329
1.2145319925
1.2119852420
1.2110457461
1.2107569377
1.2107099262
1.2107240152
1.2107196433
1.2106687381
1.2105586817
1.2103840683
1.2101517628
1.2098745010
1.2095673862
1.2092467441
1.2089296160
1.2086327333
1.2083720495
1.2081624973
1.2080161693
1.2079427287
1.2079485187
1.2080357990
1.2082021804
1.2084401165
1.2087369516
1.2090753211
1.2094336361
1.2097876355
1.2101121727
1.2103828569
1.2105786689
1.2106840633
1.2092705383
1.1723078688
1.1712619014
1.1712402494
1.1711950685
1.1711224738
1.1710171215
1.1708727078
1.1706823436
1.1704392204
1.1701371721
1.1697706645
1.1693350227
1.1688261262
1.1682390260
1.1675669178
1.1667998056
1.1659242560
1.1649320222
1.1638549731
1.1628850549
1.1628627663
1.1705051616
1.1785650833
1.1722607972
1.1929142534
1.2043806713
1.2069492319
1.2082081351
1.2090202377
1.2096242192
1.2100793805
1.2103999421
1.2105930268
1.2106729317
1.2106588102
1.2105559073
1.2103763990
1.2101391217
1.2098635015
1.2095688898
1.2092744444
1.2089983690
1.2087577219
1.2085675857
1.2084409101
1.2083874740
1.2084136601
1.2085215807
1.2087086118
1.2089668975
1.2092834241
1.2096404355
1.2100159157
1.2103851746
1.2107226547
1.2110035748
1.2112065904
1.2113159194
1.2098899664
1.1717023358
1.1706296930
1.1706163894
1.1705880354
1.1705408314
1.1704696179
1.1703684318
1.1702308991
1.1700510512
1.1698240704
1.1695464979
1.1692170047
1.1688369049
1.1684100558
1.1679444053
1.1674548611
1.1669695726
1.1665478410
1.1663205307
1.1665840168
1.1680741756
1.1731796444
1.1788800870
1.1725444579
1.1875930621
1.1974637511
1.2023482614
1.2053205153
1.2072569247
1.2085791058
1.2094948878
1.2101152245
1.2105062939
1.2107155193
1.2107902596
1.2107538870
1.2106213307
1.2104174155
1.2101662396
1.2098904127
1.2096112782
1.2093485516
1.2091200723
1.2089419196
1.2088274351
1.2087866524
1.2088259365
1.2089472752
1.2091478605
1.2094195983
1.2097492057
1.2101186408
1.2105055834
1.2108850469
1.2112311978
1.2115189959
1.2117268842
1.2118389286
1.2104115362
1.1712137225
1.1701214829
1.1701154363
1.1701017634
1.1700767979
1.1700356262
1.1699727234
1.1698823585
1.1697595464
1.1696009555
1.1694052851
1.1691744449
1.1689145893
1.1686366403
1.1683589471
1.1681112674
1.1679412835
1.1679298758
1.1682177430
1.1690517228
1.1708765258
1.1744719855
1.1784309777
1.1791597336
1.1878120311
1.1950784893
1.2000416063
1.2035616158
1.2060626559
1.2078409339
1.2090929461
1.2099507750
1.2105056372
1.2108243957
1.2109705524
1.2109862924
1.2108901728
1.2107099150
1.2104740009
1.2102081803
1.2099355749
1.2096774613
1.2094528369
1.2092787112
1.2091685641
1.2091325650
1.2091770826
1.2093040331
1.2095104888
1.2097881990
1.2101237107
1.2104988130
1.2108910158
1.2112751809
1.2116253475
1.2119163596
1.2121265719
1.2122399902
1.2108226449
1.1708393622
1.1697345070
1.1697342710
1.1697323859
1.1697253200
1.1697083878
1.1696764759
1.1696244575
1.1695482358
1.1694457754
1.1693175776
1.1691681137
1.1690071211
1.1688503133
1.1687223743
1.1686608665
1.1687214807
1.1689895454
1.1695955447
1.1707326118
1.1726699230
1.1756842015
1.1791888828
1.1821962619
1.1883578033
1.1942254463
1.1989500978
1.2026261198
1.2054015484
1.2074487673
1.2089211231
1.2099441957
1.2106162605
1.2110140624
1.2112093876
1.2112578260
1.2111839299
1.2110152090
1.2107836313
1.2105171521
1.2102415223
1.2099793225
1.2097507671
1.2095727226
1.2094588869
1.2094195754
1.2094612049
1.2095856777
1.2097900184
1.2100659090
1.2103998332
1.2107735359
1.2111645016
1.2115475956
1.2118968874
1.2121872585
1.2123971068
1.2125104767
1.2111146111
1.1705768040
1.1694663824
1.1694701333
1.1694763531
1.1694816388
1.1694815952
1.1694713514
1.1694461517
1.1694024998
1.1693392383
1.1692580605
1.1691650807
1.1690722420
1.1689980408
1.1689705928
1.1690312665
1.1692388219
1.1696782674
1.1704696388
1.1717710110
1.1737653077
1.1765804035
1.1799835138
1.1836964933
1.1888732203
1.1940532374
1.1985774238
1.2022877986
1.2051928588
1.2073861802
1.2089857822
1.2101064990
1.2108472266
1.2112893288
1.2115084045
1.2115677385
1.2114979257
1.2113261363
1.2110872277
1.2108107701
1.2105241614
1.2102507938
1.2100106086
1.2098207791
1.2096952763
1.2096445865
1.2096752156
1.2097891077
1.2099833115
1.2102495340
1.2105743064
1.2109394601
1.2113226034
1.2116987662
1.2120422115
1.2123280165
1.2125347588
1.2126466222
1.2112830779
1.1704307115
1.1693216177
1.1693275679
1.1693382453
1.1693502662
1.1693593029
1.1693605970
1.1693495411
1.1693228787
1.1692798082
1.1692224999
1.1691577188
1.1690982669
1.1690636922
1.1690834013
1.1692002136
1.1694740822
1.1699899089
1.1708635100
1.1722390192
1.1742684727
1.1770428924
1.1804545100
1.1843914065
1.1892589063
1.1941954754
1.1986433939
1.2023720617
1.2053355171
1.2075932921
1.2092471941
1.2104069102
1.2111716323
1.2116250803
1.2118444785
1.2118972468
1.2118181283
1.2116332346
1.2113789122
1.2110862842
1.2107822522
1.2104903751