<VTKFile type="UnstructuredGrid" version="0.1">
	<UnstructuredGrid>
		<Piece NumberOfPoints="13548" NumberOfCells="3387">
			<CellData>
				<DataArray type="Int32" Name="ghost" NumberOfComponents="1" Format="ascii">
1
1
1
1
1
1
1
1
1
1
1
1
1
1
1
1
1
1
1
1
1
1
1
1
1
1
1
1
1
1
1
1
1
1
1
1
1
1
1
1
1
1
1
1
1
1
1
1
1
1
1
1
1
1
1
1
1
1
0
0
0
0
0
0
0
0
0
0
0
0
0
0
0
0
0
0
0
0
1
1
0
0
0
0
0
0
0
0
0
0
0
0
0
0
0
0
0
0
0
0
0
0
0
0
0
0
0
0
0
0
0
0
0
1
1
0
0
0
0
0
0
0
0
0
0
0
0
0
0
0
0
0
0
0
0
1
1
0
0
0
0
0
0
0
0
0
0
0
0
0
0
0
0
0
0
0
0
0
0
0
0
0
0
0
0
0
0
0
0
0
1
1
0
0
0
0
0
0
0
0
0
0
0
0
0
0
0
0
0
0
0
0
1
1
0
0
0
0
0
0
0
0
0
0
0
0
0
0
0
0
0
0
0
0
0
0
0
0
0
0
0
0
0
0
0
0
0
1
1
0
0
0
0
0
0
0
0
0
0
0
0
0
0
0
0
0
0
0
0
1
1
0
0
0
0
0
0
0
0
0
0
0
0
0
0
0
0
0
0
0
0
0
0
0
0
0
0
0
0
0
0
0
0
0
1
1
0
0
0
0
0
0
0
0
0
0
0
0
0
0
0
0
0
0
0
0
1
1
0
0
0
0
0
0
0
0
0
0
0
0
0
0
0
0
0
0
0
0
0
0
0
0
0
0
0
0
0
0
0
0
0
1
1
0
0
0
0
0
0
0
0
0
0
0
0
0
0
0
0
0
0
0
0
1
1
0
0
0
0
0
0
0
0
0
0
0
0
0
0
0
0
0
0
0
0
0
0
0
0
0
0
0
0
0
0
0
0
0
1
1
0
0
0
0
0
0
0
0
0
0
0
0
0
0
0
0
0
0
0
0
1
1
0
0
0
0
0
0
0
0
0
0
0
0
0
0
0
0
0
0
0
0
0
0
0
0
0
0
0
0
0
0
0
0
0
1
1
0
0
0
0
0
0
0
0
0
0
0
0
0
0
0
0
0
0
0
0
1
1
0
0
0
0
0
0
0
0
0
0
0
0
0
0
0
0
0
0
0
0
0
0
0
0
0
0
0
0
0
0
0
0
0
1
1
0
0
0
0
0
0
0
0
0
0
0
0
0
0
0
0
0
0
0
0
1
1
0
0
0
0
0
0
0
0
0
0
0
0
0
0
0
0
0
0
0
0
0
0
0
0
0
0
0
0
0
0
0
0
0
1
1
0
0
0
0
0
0
0
0
0
0
0
0
0
0
0
0
0
0
0
0
1
1
0
0
0
0
0
0
0
0
0
0
0
0
0
0
0
0
0
0
0
0
0
0
0
0
0
0
0
0
0
0
0
0
0
1
1
0
0
0
0
0
0
0
0
0
0
0
0
0
0
0
0
0
0
0
0
1
1
0
0
0
0
0
0
0
0
0
0
0
0
0
0
0
0
0
0
0
0
0
0
0
0
0
0
0
0
0
0
0
0
0
1
1
0
0
0
0
0
0
0
0
0
0
0
0
0
0
0
0
0
0
0
0
1
1
0
0
0
0
0
0
0
0
0
0
0
0
0
0
0
0
0
0
0
0
0
0
0
0
0
0
0
0
0
0
0
0
0
1
1
0
0
0
0
0
0
0
0
0
0
0
0
0
0
0
0
0
0
0
0
1
1
0
0
0
0
0
0
0
0
0
0
0
0
0
0
0
0
0
0
0
0
0
0
0
0
0
0
0
0
0
0
0
0
0
1
1
0
0
0
0
0
0
0
0
0
0
0
0
0
0
0
0
0
0
0
0
1
1
0
0
0
0
0
0
0
0
0
0
0
0
0
0
0
0
0
0
0
0
0
0
0
0
0
0
0
0
0
0
0
0
0
1
1
0
0
0
0
0
0
0
0
0
0
0
0
0
0
0
0
0
0
0
0
1
1
0
0
0
0
0
0
0
0
0
0
0
0
0
0
0
0
0
0
0
0
0
0
0
0
0
0
0
0
0
0
0
0
0
1
1
0
0
0
0
0
0
0
0
0
0
0
0
0
0
0
0
0
0
0
0
1
1
0
0
0
0
0
0
0
0
0
0
0
0
0
0
0
0
0
0
0
0
0
0
0
0
0
0
0
0
0
0
0
0
0
1
1
0
0
0
0
0
0
0
0
0
0
0
0
0
0
0
0
0
0
0
0
1
1
0
0
0
0
0
0
0
0
0
0
0
0
0
0
0
0
0
0
0
0
0
0
0
0
0
0
0
0
0
0
0
0
0
1
1
0
0
0
0
0
0
0
0
0
0
0
0
0
0
0
0
0
0
0
0
1
1
0
0
0
0
0
0
0
0
0
0
0
0
0
0
0
0
0
0
0
0
0
0
0
0
0
0
0
0
0
0
0
0
0
1
1
0
0
0
0
0
0
0
0
0
0
0
0
0
0
0
0
0
0
0
0
1
1
0
0
0
0
0
0
0
0
0
0
0
0
0
0
0
0
0
0
0
0
0
0
0
0
0
0
0
0
0
0
0
0
0
1
1
0
0
0
0
0
0
0
0
0
0
0
0
0
0
0
0
0
0
0
0
1
1
0
0
0
0
0
0
0
0
0
0
0
0
0
0
0
0
0
0
0
0
0
0
0
0
0
0
0
0
0
0
0
0
0
1
1
0
0
0
0
0
0
0
0
0
0
0
0
0
0
0
0
0
0
0
0
1
1
0
0
0
0
0
0
0
0
0
0
0
0
0
0
0
0
0
0
0
0
0
0
0
0
0
0
0
0
0
0
0
0
0
1
1
0
0
0
0
0
0
0
0
0
0
0
0
0
0
0
0
0
0
0
0
1
1
0
0
0
0
0
0
0
0
0
0
0
0
0
0
0
0
0
0
0
0
0
0
0
0
0
0
0
0
0
0
0
0
0
1
1
0
0
0
0
0
0
0
0
0
0
0
0
0
0
0
0
0
0
0
0
1
1
0
0
0
0
0
0
0
0
0
0
0
0
0
0
0
0
0
0
0
0
0
0
0
0
0
0
0
0
0
0
0
0
0
1
1
0
0
0
0
0
0
0
0
0
0
0
0
0
0
0
0
0
0
0
0
1
1
0
0
0
0
0
0
0
0
0
0
0
0
0
0
0
0
0
0
0
0
0
0
0
0
0
0
0
0
0
0
0
0
0
1
1
0
0
0
0
0
0
0
0
0
0
0
0
0
0
0
0
0
0
0
0
0
1
1
0
0
0
0
0
0
0
0
0
0
0
0
0
0
0
0
0
0
0
0
0
0
0
0
0
0
0
0
0
0
0
0
0
0
1
1
0
0
0
0
0
0
0
0
0
0
0
0
0
0
0
0
0
0
0
0
0
0
0
0
0
0
0
0
0
0
0
0
0
0
0
0
0
0
0
0
0
0
0
0
0
0
0
0
0
0
0
0
0
0
0
0
0
1
1
0
0
0
0
0
0
0
0
0
0
0
0
0
0
0
0
0
0
0
0
0
0
0
0
0
0
0
0
0
0
0
0
0
0
0
0
0
0
0
0
0
0
0
0
0
0
0
0
0
0
0
0
0
0
0
0
0
1
1
0
0
0
0
0
0
0
0
0
0
0
0
0
0
0
0
0
0
0
0
0
0
0
0
0
0
0
0
0
0
0
0
0
0
0
0
0
0
0
0
0
0
0
0
0
0
0
0
0
0
0
0
0
0
0
0
0
1
1
0
0
0
0
0
0
0
0
0
0
0
0
0
0
0
0
0
0
0
0
0
0
0
0
0
0
0
0
0
0
0
0
0
0
0
0
0
0
0
0
0
0
0
0
0
0
0
0
0
0
0
0
0
0
0
0
0
1
1
0
0
0
0
0
0
0
0
0
0
0
0
0
0
0
0
0
0
0
0
0
0
0
0
0
0
0
0
0
0
0
0
0
0
0
0
0
0
0
0
0
0
0
0
0
0
0
0
0
0
0
0
0
0
0
0
0
1
1
0
0
0
0
0
0
0
0
0
0
0
0
0
0
0
0
0
0
0
0
0
0
0
0
0
0
0
0
0
0
0
0
0
0
0
0
0
0
0
0
0
0
0
0
0
0
0
0
0
0
0
0
0
0
0
0
0
1
1
0
0
0
0
0
0
0
0
0
0
0
0
0
0
0
0
0
0
0
0
0
0
0
0
0
0
0
0
0
0
0
0
0
0
0
0
0
0
0
0
0
0
0
0
0
0
0
0
0
0
0
0
0
0
0
0
0
1
1
0
0
0
0
0
0
0
0
0
0
0
0
0
0
0
0
0
0
0
0
0
0
0
0
0
0
0
0
0
0
0
0
0
0
0
0
0
0
0
0
0
0
0
0
0
0
0
0
0
0
0
0
0
0
0
0
0
1
1
0
0
0
0
0
0
0
0
0
0
0
0
0
0
0
0
0
0
0
0
0
0
0
0
0
0
0
0
0
0
0
0
0
0
0
0
0
0
0
0
0
0
0
0
0
0
0
0
0
0
0
0
0
0
0
0
0
1
1
0
0
0
0
0
0
0
0
0
0
0
0
0
0
0
0
0
0
0
0
0
0
0
0
0
0
0
0
0
0
0
0
0
0
0
0
0
0
0
0
0
0
0
0
0
0
0
0
0
0
0
0
0
0
0
0
0
1
1
0
0
0
0
0
0
0
0
0
0
0
0
0
0
0
0
0
0
0
0
0
1
1
0
0
0
0
0
0
0
0
0
0
0
0
0
0
0
0
0
0
0
0
0
0
0
0
0
0
0
0
0
0
0
0
0
0
1
1
0
0
0
0
0
0
0
0
0
0
0
0
0
0
0
0
0
0
0
0
1
1
0
0
0
0
0
0
0
0
0
0
0
0
0
0
0
0
0
0
0
0
0
0
0
0
0
0
0
0
0
0
0
0
0
1
1
0
0
0
0
0
0
0
0
0
0
0
0
0
0
0
0
0
0
0
0
1
1
0
0
0
0
0
0
0
0
0
0
0
0
0
0
0
0
0
0
0
0
0
0
0
0
0
0
0
0
0
0
0
0
0
1
1
0
0
0
0
0
0
0
0
0
0
0
0
0
0
0
0
0
0
0
0
1
1
0
0
0
0
0
0
0
0
0
0
0
0
0
0
0
0
0
0
0
0
0
0
0
0
0
0
0
0
0
0
0
0
0
1
1
0
0
0
0
0
0
0
0
0
0
0
0
0
0
0
0
0
0
0
0
1
1
0
0
0
0
0
0
0
0
0
0
0
0
0
0
0
0
0
0
0
0
0
0
0
0
0
0
0
0
0
0
0
0
0
1
1
0
0
0
0
0
0
0
0
0
0
0
0
0
0
0
0
0
0
0
0
1
1
0
0
0
0
0
0
0
0
0
0
0
0
0
0
0
0
0
0
0
0
0
0
0
0
0
0
0
0
0
0
0
0
0
1
1
0
0
0
0
0
0
0
0
0
0
0
0
0
0
0
0
0
0
0
0
1
1
0
0
0
0
0
0
0
0
0
0
0
0
0
0
0
0
0
0
0
0
0
0
0
0
0
0
0
0
0
0
0
0
0
1
1
0
0
0
0
0
0
0
0
0
0
0
0
0
0
0
0
0
0
0
0
1
1
0
0
0
0
0
0
0
0
0
0
0
0
0
0
0
0
0
0
0
0
0
0
0
0
0
0
0
0
0
0
0
0
0
1
1
0
0
0
0
0
0
0
0
0
0
0
0
0
0
0
0
0
0
0
0
1
1
0
0
0
0
0
0
0
0
0
0
0
0
0
0
0
0
0
0
0
0
0
0
0
0
0
0
0
0
0
0
0
0
0
1
1
0
0
0
0
0
0
0
0
0
0
0
0
0
0
0
0
0
0
0
0
1
1
0
0
0
0
0
0
0
0
0
0
0
0
0
0
0
0
0
0
0
0
0
0
0
0
0
0
0
0
0
0
0
0
0
1
1
0
0
0
0
0
0
0
0
0
0
0
0
0
0
0
0
0
0
0
0
1
1
0
0
0
0
0
0
0
0
0
0
0
0
0
0
0
0
0
0
0
0
0
0
0
0
0
0
0
0
0
0
0
0
0
1
1
0
0
0
0
0
0
0
0
0
0
0
0
0
0
0
0
0
0
0
0
1
1
0
0
0
0
0
0
0
0
0
0
0
0
0
0
0
0
0
0
0
0
0
0
0
0
0
0
0
0
0
0
0
0
0
1
1
0
0
0
0
0
0
0
0
0
0
0
0
0
0
0
0
0
0
0
0
1
1
0
0
0
0
0
0
0
0
0
0
0
0
0
0
0
0
0
0
0
0
0
0
0
0
0
0
0
0
0
0
0
0
0
1
1
0
0
0
0
0
0
0
0
0
0
0
0
0
0
0
0
0
0
0
0
1
1
0
0
0
0
0
0
0
0
0
0
0
0
0
0
0
0
0
0
0
0
0
0
0
0
0
0
0
0
0
0
0
0
0
1
1
0
0
0
0
0
0
0
0
0
0
0
0
0
0
0
0
0
0
0
0
1
1
0
0
0
0
0
0
0
0
0
0
0
0
0
0
0
0
0
0
0
0
0
0
0
0
0
0
0
0
0
0
0
0
0
1
1
0
0
0
0
0
0
0
0
0
0
0
0
0
0
0
0
0
0
0
0
1
1
0
0
0
0
0
0
0
0
0
0
0
0
0
0
0
0
0
0
0
0
0
0
0
0
0
0
0
0
0
0
0
0
0
1
1
0
0
0
0
0
0
0
0
0
0
0
0
0
0
0
0
0
0
0
0
1
1
0
0
0
0
0
0
0
0
0
0
0
0
0
0
0
0
0
0
0
0
0
0
0
0
0
0
0
0
0
0
0
0
0
1
1
0
0
0
0
0
0
0
0
0
0
0
0
0
0
0
0
0
0
0
0
1
1
0
0
0
0
0
0
0
0
0
0
0
0
0
0
0
0
0
0
0
0
0
0
0
0
0
0
0
0
0
0
0
0
0
1
1
0
0
0
0
0
0
0
0
0
0
0
0
0
0
0
0
0
0
0
0
1
1
0
0
0
0
0
0
0
0
0
0
0
0
0
0
0
0
0
0
0
0
0
0
0
0
0
0
0
0
0
0
0
0
0
1
1
0
0
0
0
0
0
0
0
0
0
0
0
0
0
0
0
0
0
0
0
1
1
0
0
0
0
0
0
0
0
0
0
0
0
0
0
0
0
0
0
0
0
0
0
0
0
0
0
0
0
0
0
0
0
0
1
1
0
0
0
0
0
0
0
0
0
0
0
0
0
0
0
0
0
0
0
0
1
1
0
0
0
0
0
0
0
0
0
0
0
0
0
0
0
0
0
0
0
0
0
0
0
0
0
0
0
0
0
0
0
0
0
1
1
0
0
0
0
0
0
0
0
0
0
0
0
0
0
0
0
0
0
0
0
1
1
0
0
0
0
0
0
0
0
0
0
0
0
0
0
0
0
0
0
0
0
0
0
0
0
0
0
0
0
0
0
0
0
0
1
1
1
1
1
1
1
1
1
1
1
1
1
1
1
1
1
1
1
1
1
1
1
1
1
1
1
1
1
1
1
1
1
1
1
1
1
1
1
1
1
1
1
1
1
1
1
1
1
1
1
1
1
1
1
1
1
1
				</DataArray>
				<DataArray type="Float64" Name="h" NumberOfComponents="1" Format="ascii">
1.3227566869
1.3222856943
1.3225488159
1.3230807646
1.3238897628
1.3249860466
1.3263791042
1.3280740463
1.3300679675
1.3323456566
1.3348759651
1.3376097779
1.3404791746
1.3433992061
1.3462720283
1.3489923078
1.3514543653
1.3535590716
1.3552195805
1.3563666247
1.3569518618
1.3569518618
1.1259332307
1.1259160594
1.1259448086
1.1259919926
1.1260508528
1.1261114045
1.1261608253
1.1261844118
1.1261654588
1.1260855752
1.1259253735
1.1256639050
1.1252784347
1.1247444182
1.1240342165
1.1231161971
1.1219539546
1.1205045797
1.1187177276
1.1165351927
1.1138907902
1.1107126897
1.1069280994
1.1024714252
1.0972981042
1.0914028258
1.0848423401
1.0777604225
1.0704064575
1.0631417523
1.0564243543
1.0507642600
1.0466558229
1.0444975194
1.0444975194
1.3222856943
1.3219431944
1.3221783494
1.3226545503
1.3233799572
1.3243646139
1.3256176590
1.3271437064
1.3289393482
1.3309891675
1.3332625567
1.3357123205
1.3382745529
1.3408710116
1.3434135635
1.3458094382
1.3479676331
1.3498045686
1.3512483581
1.3522426455
1.3527486482
1.3569518618
1.1259160594
1.1258329905
1.1258677286
1.1259269743
1.1260040856
1.1260892560
1.1261699154
1.1262317079
1.1262584019
1.1262322356
1.1261346544
1.1259457984
1.1256443281
1.1252074743
1.1246098218
1.1238224630
1.1228122862
1.1215402672
1.1199604852
1.1180195932
1.1156564162
1.1128037539
1.1093923036
1.1053576632
1.1006526627
1.0952640478
1.0892340069
1.0826848776
1.0758393798
1.0690307296
1.0626928322
1.0573203459
1.0534027346
1.0513408630
1.0444975194
1.3228754425
1.3224878908
1.3227196417
1.3231886147
1.3239022774
1.3248697236
1.3260989895
1.3275935798
1.3293491424
1.3313496870
1.3335646040
1.3359474312
1.3384358328
1.3409539638
1.3434167845
1.3457350851
1.3478215772
1.3495962372
1.3509903190
1.3519499896
1.3524382370
1.3566198046
1.1252839353
1.1252571635
1.1252912552
1.1253491186
1.1254237564
1.1255048657
1.1255792776
1.1256319753
1.1256460467
1.1256030664
1.1254838658
1.1252680519
1.1249338726
1.1244583201
1.1238159905
1.1229783575
1.1219132251
1.1205832459
1.1189452352
1.1169499882
1.1145422586
1.1116628940
1.1082529062
1.1042602532
1.0996512831
1.0944256045
1.0886347133
1.0824028219
1.0759430407
1.0695645935
1.0636629559
1.0586840673
1.0550664864
1.0531681401
1.0463594554
1.3240358440
1.3235618491
1.3237867868
1.3242413163
1.3249315524
1.3258647295
1.3270467255
1.3284788723
1.3301549687
1.3320579038
1.3341570743
1.3364074682
1.3387498492
1.3411130971
1.3434182677
1.3455831679
1.3475278408
1.3491792943
1.3504750100
1.3513661650
1.3518192670
1.3559592766
1.1239958172
1.1240791965
1.1241122718
1.1241679224
1.1242384359
1.1243125145
1.1243757995
1.1244119780
1.1244028262
1.1243286715
1.1241692327
1.1239032044
1.1235082035
1.1229609757
1.1222364015
1.1213069953
1.1201426599
1.1187096164
1.1169702482
1.1148835152
1.1124055683
1.1094923973
1.1061040488
1.1022108752
1.0978032654
1.0929032248
1.0875778940
1.0819536599
1.0762253242
1.0706581407
1.0655774100
1.0613393555
1.0582873928
1.0566978490
1.0499643106
1.3257425559
1.3251460045
1.3253609426
1.3257942963
1.3264502183
1.3273332382
1.3284460855
1.3297869128
1.3313468023
1.3331069864
1.3350368458
1.3370934673
1.3392221212
1.3413585767
1.3434327853
1.3453728160
1.3471094576
1.3485800658
1.3497313166
1.3505218090
1.3509232654
1.3550036398
1.1219931754
1.1222366543
1.1222687469
1.1223221706
1.1223881427
1.1224538922
1.1225033215
1.1225182612
1.1224786622
1.1223631856
1.1221501563
1.1218172466
1.1213415413
1.1206998900
1.1198681105
1.1188207873
1.1175314169
1.1159718592
1.1141128297
1.1119250223
1.1093804321
1.1064555043
1.1031353428
1.0994190712
1.0953272137
1.0909090642
1.0862498871
1.0814768256
1.0767594514
1.0723050748
1.0683467882
1.0651215836
1.0628441132
1.0616781395
1.0550748039
1.3279595616
1.3272116677
1.3274137206
1.3278198214
1.3284316256
1.3292502093
1.3302742641
1.3314978471
1.3329085205
1.3344853426
1.3361976257
1.3380050992
1.3398587799
1.3417032470
1.3434798646
1.3451298964
1.3465980065
1.3478349663
1.3487994339
1.3494597064
1.3497943359
1.3537992305
1.1192106442
1.1196556122
1.1196875359
1.1197402826
1.1198036494
1.1198629332
1.1198997999
1.1198937582
1.1198225687
1.1196630149
1.1193920124
1.1189864227
1.1184232586
1.1176802051
1.1167350399
1.1155657499
1.1141510869
1.1124705481
1.1105055065
1.1082409951
1.1056676487
1.1027851923
1.0996064196
1.0961613957
1.0925021883
1.0887057555
1.0848745868
1.0811340988
1.0776240364
1.0744861276
1.0718493680
1.0698147474
1.0684478181
1.0677801188
1.0613760647
1.3306406050
1.3297213259
1.3299079438
1.3302814530
1.3308405750
1.3315823091
1.3325005602
1.3335845037
1.3348174765
1.3361758917
1.3376289074
1.3391393275
1.3406649348
1.3421607447
1.3435816767
1.3448847359
1.3460312064
1.3469880228
1.3477283438
1.3482322516
1.3484866097
1.3524024242
1.1155990845
1.1162717856
1.1163056371
1.1163618153
1.1164283351
1.1164881067
1.1165200964
1.1165011060
1.1164064748
1.1162110840
1.1158906596
1.1154217310
1.1147819756
1.1139508983
1.1129094407
1.1116403709
1.1101291905
1.1083645549
1.1063399174
1.1040558248
1.1015222990
1.0987624719
1.0958161856
1.0927429695
1.0896241925
1.0865617222
1.0836723772
1.0810771366
1.0788834439
1.0771648124
1.0759425962
1.0751767568
1.0747775725
1.0746385346
1.0685108640
1.3337317542
1.3326304818
1.3327994446
1.3331357615
1.3336348978
1.3342893115
1.3350875464
1.3360132852
1.3370450760
1.3381562928
1.3393158447
1.3404899128
1.3416438312
1.3427443193
1.3437615729
1.3446704084
1.3454510220
1.3460888370
1.3465736894
1.3468992651
1.3470620445
1.3508770533
1.1111503471
1.1120545267
1.1120942612
1.1121616580
1.1122425382
1.1123169235
1.1123605926
1.1123472641
1.1122496727
1.1120408529
1.1116956604
1.1111908688
1.1105056193
1.1096222117
1.1085258254
1.1072050787
1.1056531663
1.1038685684
1.1018570299
1.0996341940
1.0972282628
1.0946836693
1.0920643048
1.0894554240
1.0869635366
1.0847113032
1.0828263140
1.0814225497
1.0805738799
1.0802858714
1.0804744324
1.0809631469
1.0815142450
1.0818916445
1.0761163757
1.3371731155
1.3358887313
1.3360381036
1.3363332787
1.3367662793
1.3373247345
1.3379914656
1.3387442647
1.3395565177
1.3403982855
1.3412381501
1.3420458624
1.3427948327
1.3434643796
1.3440412106
1.3445195016
1.3449001150
1.3451887946
1.3453938022
1.3455239091
1.3455862819
1.3492899867
1.1059189180
1.1070299346
1.1070819221
1.1071730614
1.1072864394
1.1073985377
1.1074813101
1.1075048817
1.1074390808
1.1072550362
1.1069269305
1.1064322019
1.1057520369
1.1048721948
1.1037827258
1.1024785633
1.1009607469
1.0992372588
1.0973251784
1.0952535339
1.0930661741
1.0908254977
1.0886154555
1.0865426415
1.0847342649
1.0833296346
1.0824635632
1.0822403721
1.0826990883
1.0837786023
1.0852951067
1.0869479311
1.0883697721
1.0892158002
1.0838585547
1.3409004702
1.3394408692
1.3395689399
1.3398195605
1.3401812622
1.3406367568
1.3411630165
1.3417317962
1.3423111723
1.3428677831
1.3433698620
1.3437908311
1.3441124471
1.3443271290
1.3444388318
1.3444620499
1.3444194833
1.3443384625
1.3442469153
1.3441697798
1.3441256769
1.3477080258
1.1000305292
1.1012937402
1.1013671828
1.1015000710
1.1016719592
1.1018548263
1.1020158299
1.1021206544
1.1021355787
1.1020294177
1.1017755085
1.1013519714
1.1007421645
1.0999354490
1.0989267785
1.0977171818
1.0963149442
1.0947364463
1.0930083989
1.0911708844
1.0892804755
1.0874141342
1.0856721757
1.0841787432
1.0830780093
1.0825222787
1.0826499912
1.0835524587
1.0852316748
1.0875610564
1.0902650628
1.0929364287
1.0951050731
1.0963467757
1.0914557335
1.3448477299
1.3432289289
1.3433341614
1.3435372432
1.3438233041
1.3441702538
1.3445493393
1.3449264043
1.3452643253
1.3455263963
1.3456805861
1.3457040147
1.3455868464
1.3453346704
1.3449689376
1.3445248238
1.3440473681
1.3435861727
1.3431895101
1.3428990770
1.3427453864
1.3461960221
1.0936701060
1.0950054665
1.0951126170
1.0953110462
1.0955755352
1.0958720707
1.0961614868
1.0964036190
1.0965599975
1.0965961603
1.0964838789
1.0962014288
1.0957339246
1.0950739349
1.0942208222
1.0931809950
1.0919689563
1.0906080767
1.0891328883
1.0875923634
1.0860533720
1.0846048742
1.0833609480
1.0824606532
1.0820623070
1.0823278873
1.0833953830
1.0853385703
1.0881189877
1.0915455639
1.0952607731
1.0987722403
1.1015385853
1.1030894205
1.0986917377
1.3489479444
1.3471929641
1.3472739656
1.3474268749
1.3476336442
1.3478676912
1.3480949108
1.3482756381
1.3483679307
1.3483320057
1.3481357878
1.3477601218
1.3472034034
1.3464841228
1.3456409008
1.3447294310
1.3438169609
1.3429753212
1.3422732888
1.3417693935
1.3415060454
1.3448137281
1.0870522469
1.0883647895
1.0885211064
1.0888147528
1.0892137770
1.0896758835
1.0901532531
1.0905977006
1.0909640935
1.0912130730
1.0913135381
1.0912428814
1.0909871297
1.0905413261
1.0899085083
1.0890996344
1.0881344385
1.0870421157
1.0858637052
1.0846556789
1.0834938262
1.0824777932
1.0817341147
1.0814152274
1.0816913771
1.0827307661
1.0846659819
1.0875474813
1.0912920277
1.0956453099
1.1001792062
1.1043398983
1.1075474034
1.1093178458
1.1054195643
1.3531340554
1.3512716922
1.3513272615
1.3514277330
1.3515522021
1.3516700760
1.3517425122
1.3517250276
1.3515715459
1.3512397852
1.3506977513
1.3499300847
1.3489431119
1.3477676799
1.3464587330
1.3450916021
1.3437552282
1.3425429578
1.3415435050
1.3408318441
1.3404618488
1.3436141609
1.0803796931
1.0815733455
1.0817978699
1.0822226825
1.0828059856
1.0834937599
1.0842261496
1.0849438681
1.0855924423
1.0861253846
1.0865069584
1.0867123338
1.0867274590
1.0865491192
1.0861834427
1.0856454120
1.0849594812
1.0841601685
1.0832945679
1.0824263084
1.0816398984
1.0810455546
1.0807820035
1.0810141920
1.0819221873
1.0836764455
1.0863982428
1.0901080446
1.0946733751
1.0997788803
1.1049387274
1.1095618735
1.1130606328
1.1149664120
1.1115549933
1.3573403964
1.3554039503
1.3554331436
1.3554794143
1.3555194046
1.3555191134
1.3554357195
1.3552207883
1.3548249734
1.3542043372
1.3533274269
1.3521826485
1.3507838910
1.3491734591
1.3474214924
1.3456216437
1.3438829087
1.3423192672
1.3410382604
1.3401302691
1.3396596783
1.3426431295
1.0738001413
1.0747910612
1.0751074877
1.0757071200
1.0765333255
1.0775152811
1.0785764121
1.0796422788
1.0806457135
1.0815304585
1.0822542094
1.0827886140
1.0831187690
1.0832428365
1.0831699493
1.0829192120
1.0825200239
1.0820125705
1.0814504902
1.0809052185
1.0804707564
1.0802686251
1.0804500584
1.0811918270
1.0826814247
1.0850869281
1.0885116879
1.0929392932
1.0981842875
1.1038739586
1.1094787516
1.1143936228
1.1180500483
1.1200175679
1.1170659201
1.3615030048
1.3595289872
1.3595311750
1.3595221178
1.3594764888
1.3593575756
1.3591194561
1.3587107218
1.3580797196
1.3571815761
1.3559861003
1.3544855613
1.3527009278
1.3506850215
1.3485217997
1.3463215296
1.3442116142
1.3423247127
1.3407856329
1.3396984551
1.3391364650
1.3419370014
1.0673746859
1.0681008254
1.0685400956
1.0693695208
1.0705095009
1.0718649449
1.0733363036
1.0748289983
1.0762593752
1.0775587194
1.0786764796
1.0795799406
1.0802531688
1.0806960117
1.0809212486
1.0809529711
1.0808265407
1.0805889587
1.0803016889
1.0800453540
1.0799248336
1.0800741002
1.0806573436
1.0818622798
1.0838809672
1.0868739345
1.0909197835
1.0959588922
1.1017505174
1.1078699574
1.1137583795
1.1188176427
1.1225198779
1.1244889701
1.1219599972
1.3655600520
1.3635868622
1.3635618291
1.3634971459
1.3633660303
1.3631298094
1.3627403924
1.3621444385
1.3612890153
1.3601291660
1.3586364333
1.3568069749
1.3546683063
1.3522827171
1.3497464999
1.3471848341
1.3447417505
1.3425668003
1.3408000648
1.3395570051
1.3389169297
1.3415211217
1.0610609223
1.0614863484
1.0620922214
1.0632247583
1.0647683172
1.0665924303
1.0685665331
1.0705702123
1.0724995733
1.0742712950
1.0758257210
1.0771258673
1.0781555285
1.0789174228
1.0794294230
1.0797222118
1.0798388010
1.0798347598
1.0797811749
1.0797696321
1.0799175084
1.0803724052
1.0813117216
1.0829328554
1.0854291259
1.0889481231
1.0935372390
1.0990885172
1.1053054791
1.1117183275
1.1177530751
1.1228361075
1.1264958516
1.1284203841
1.1262712248
1.3694534110
1.3675199495
1.3674680241
1.3673484831
1.3671336021
1.3667834860
1.3662487845
1.3654752251
1.3644095529
1.3630074943
1.3612426965
1.3591151495
1.3566582878
1.3539427636
1.3510757680
1.3481958463
1.3454621405
1.3430396304
1.3410818896
1.3397129186
1.3390132942
1.3414093544
1.0547077827
1.0548221215
1.0556623181
1.0572024691
1.0592692146
1.0616809554
1.0642662242
1.0668730155
1.0693743844
1.0716717112
1.0736969598
1.0754104365
1.0767976488
1.0778663308
1.0786416337
1.0791630017
1.0794832152
1.0796684822
1.0798015148
1.0799867078
1.0803554751
1.0810699840
1.0823207212
1.0843130856
1.0872380828
1.0912251336
1.0962848414
1.1022574510
1.1087922475
1.1153823299
1.1214515983
1.1264647717
1.1300165618
1.1318636012
1.1300491614
1.3731294940
1.3712736550
1.3711958243
1.3710234641
1.3707283850
1.3702701398
1.3695989228
1.3686603840
1.3674017220
1.3657798954
1.3637708488
1.3613781217
1.3586403457
1.3556354168
1.3524801878
1.3493254787
1.3463448472
1.3437183434
1.3416122042
1.3401559806
1.3394240510
1.3416032801
1.0480554199
1.0478702080
1.0490577961
1.0511645154
1.0539207875
1.0570737393
1.0604000154
1.0637117654
1.0668588387
1.0697295339
1.0722507610
1.0743837162
1.0761190487
1.0774725788
1.0784794684
1.0791903875
1.0796701264
1.0799976097
1.0802690864
1.0806034099
1.0811472660
1.0820779300
1.0835984229
1.0859201258
1.0892281189
1.0936289455
1.0990920991
1.1054044097
1.1121641808
1.1188359217
1.1248527653
1.1297276288
1.1331265049
1.1348746367
1.1333503133
1.3765404692
1.3747974714
1.3746954563
1.3744737159
1.3741040038
1.3735458670
1.3727496705
1.3716616003
1.3702297907
1.3684126458
1.3661882569
1.3635631347
1.3605801300
1.3573232459
1.3539180255
1.3505272580
1.3473397756
1.3445526225
1.3423465968
1.3408552278
1.3401353807
1.3420937431
1.0407258269
1.0402696213
1.0420081888
1.0449324879
1.0486172804
1.0527125006
1.0569346440
1.0610610603
1.0649240302
1.0684060640
1.0714361545
1.0739825221
1.0760458705
1.0776538866
1.0788546930
1.0797125798
1.0803063574
1.0807294359
1.0810931523
1.0815320594
1.0822088994
1.0833161311
1.0850683495
1.0876806944
1.0913289061
1.0960927480
1.1018977458
1.1084775091
1.1153839907
1.1220615620
1.1279618376
1.1326520670
1.1358704319
1.1375077274
1.1362312653
1.3796462555
1.3780468516
1.3779231205
1.3776568523
1.3772200508
1.3765726437
1.3756655521
1.3744458002
1.3728625492
1.3708754102
1.3684639795
1.3656366680
1.3624391391
1.3589601164
1.3553330143
1.3517332654
1.3483681260
1.3454579269
1.3432062088
1.3417547633
1.3411287975
1.3428685399
1.0321818683
1.0314956434
1.0341748341
1.0383265419
1.0432867347
1.0485841575
1.0538791624
1.0589284744
1.0635634047
1.0676757615
1.0712085870
1.0741458717
1.0765044157
1.0783277671
1.0796796751
1.0806399194
1.0813027269
1.0817771421
1.0821905446
1.0826938544
1.0834661147
1.0847145635
1.0866640735
1.0895312626
1.0934795193
1.0985589136
1.1046496556
1.1114339277
1.1184228715
1.1250485972
1.1307881772
1.1352660326
1.1382903239
1.1398123031
1.1387449328
1.3824159166
1.3809845197
1.3808422126
1.3805375228
1.3800428957
1.3793188368
1.3783169435
1.3769850203
1.3752728964
1.3731406013
1.3705679492
1.3675634437
1.3641733661
1.3604890255
1.3566505119
1.3528471628
1.3493107517
1.3462983417
1.3440577664
1.3427615538
1.3423975406
1.3439286914
1.0216132354
1.0207469920
1.0251546559
1.0312215345
1.0379557004
1.0447761570
1.0513261268
1.0573834533
1.0628130502
1.0675411705
1.0715416550
1.0748247462
1.0774295163
1.0794187213
1.0808734431
1.0818897896
1.0825778082
1.0830624316
1.0834872478
1.0840195242
1.0848542623
1.0862126199
1.0883282027
1.0914169113
1.0956273200
1.1009779660
1.1073038191
1.1142387106
1.1212589388
1.1277912681
1.1333429503
1.1375956858
1.1404232069
1.1418309761
1.1409380165
1.3848287205
1.3835815584
1.3834243167
1.3830882328
1.3825462650
1.3817595074
1.3806800880
1.3792561802
1.3774374564
1.3751829765
1.3724707016
1.3693063877
1.3657333822
1.3618417606
1.3577752901
1.3537374625
1.3499927552
1.3468584447
1.3446741977
1.3437154461
1.3439873736
1.3453290460
1.0076555352
1.0066661025
1.0144851391
1.0236340844
1.0328361352
1.0415349214
1.0494829549
1.0565710605
1.0627562497
1.0680336034
1.0724266745
1.0759816908
1.0787644516
1.0808583777
1.0823618364
1.0833865706
1.0840575462
1.0845147408
1.0849172047
1.0854477837
1.0863165039
1.0877571759
1.0900104395
1.0932894855
1.0977262613
1.1033070078
1.1098227876
1.1168630865
1.1238753387
1.1302866727
1.1356371507
1.1396637217
1.1422998743
1.1435985542
1.1428495720
1.3868744186
1.3858179410
1.3856496482
1.3852896269
1.3847113183
1.3838762572
1.3827367392
1.3812405986
1.3793361276
1.3769794585
1.3741437867
1.3708279620
1.3670667573
1.3629419723
1.3585934318
1.3542335664
1.3501645702
1.3467961358
1.3446511352
1.3443043809
1.3460893607
1.3472708660
0.9877728878
0.9867195607
1.0017049655
1.0159101315
1.0284539806
1.0393204516
1.0486808722
1.0567006489
1.0635064656
1.0691970448
1.0738597335
1.0775812141
1.0804541191
1.0825806794
1.0840740243
1.0850589614
1.0856730154
1.0860692098
1.0864203860
1.0869234703
1.0878020356
1.0893009463
1.0916661250
1.0951063613
1.0997358670
1.1055088488
1.1121748454
1.1192835948
1.1262593232
1.1325339165
1.1376810388
1.1414892754
1.1439452817
1.1451427505
1.1445114322
1.3885525081
1.3876822123
1.3875066665
1.3871299830
1.3865259887
1.3856564126
1.3844732221
1.3829230330
1.3809512851
1.3785088262
1.3755604343
1.3720924756
1.3681227379
1.3637124699
1.3589805805
1.3541280647
1.3494800578
1.3455599259
1.3432168786
1.3438019209
1.3492167517
1.3502791060
0.9582032801
0.9571185902
0.9873318169
1.0093851085
1.0259251337
1.0388731778
1.0493583846
1.0580066292
1.0651690154
1.0710576313
1.0758194256
1.0795742270
1.0824343442
1.0845145044
1.0859372619
1.0868360483
1.0873572618
1.0876639684
1.0879403419
1.0883952808
1.0892639928
1.0908005720
1.0932545185
1.0968289123
1.1016198423
1.1075506802
1.1143326578
1.1214806602
1.1284008077
1.1345328150
1.1394831932
1.1430874604
1.1453785526
1.1464844757
1.1459483365
1.3898699996
1.3891698741
1.3889904483
1.3886035721
1.3879833387
1.3870914048
1.3858789075
1.3842903734
1.3822669369
1.3797517628
1.3766972735
1.3730707795
1.3688619345
1.3640924054
1.3588278350
1.3532049771
1.3474961510
1.3422709234
1.3388248238
1.3403082714
1.3545254824
1.3555255368
0.9267328970
0.9255513359
0.9794287077
1.0087835556
1.0276433515
1.0413217414
1.0520088190
1.0606724691
1.0677781885
1.0735787653
1.0782365712
1.0818780256
1.0846186551
1.0865748108
1.0878708028
1.0886429495
1.0890420230
1.0892375299
1.0894220341
1.0898139167
1.0906578445
1.0922152255
1.0947375867
1.0984214333
1.1033450616
1.1094030435
1.1162721603
1.1234374100
1.1302912228
1.1362829689
1.1410500018
1.1444693709
1.1466134382
1.1476385658
1.1471785371
1.3908373039
1.3902801098
1.3900994571
1.3897075228
1.3890785687
1.3881739746
1.3869436785
1.3853294840
1.3832671511
1.3806903240
1.3775358007
1.3737457071
1.3692693671
1.3640631483
1.3580816849
1.3512598519
1.3434704815
1.3344112379
1.3232914364
1.3078623840
1.2810900450
1.2030732466
1.0857297652
1.0801551169
1.0391704918
1.0107595351
1.0156094834
1.0263988316
1.0375939092
1.0478604736
1.0568865475
1.0646457755
1.0711926847
1.0766040254
1.0809631722
1.0843592433
1.0868888079
1.0886573403
1.0897829571
1.0903992173
1.0906568984
1.0907283980
1.0908116950
1.0911320969
1.0919415139
1.0935068192
1.0960802736
1.0998514374
1.1048818404
1.1110400226
1.1179726443
1.1251396958
1.1319235965
1.1377840806
1.1423863614
1.1456432211
1.1476598311
1.1486155086
1.1482154752
1.3914643743
1.3910128206
1.3908326911
1.3904391852
1.3898066853
1.3888962138
1.3876563879
1.3860261072
1.3839355004
1.3813083076
1.3780651036
1.3741219104
1.3693864771
1.3637490601
1.3570567536
1.3490654377
1.3393452901
1.3270812547
1.3106614124
1.2868167345
1.2489089751
1.1799957970
1.0841062991
1.0784195053
1.0579294385
1.0399894217
1.0366118970
1.0405653701
1.0473999642
1.0549997327
1.0623781628
1.0690781038
1.0749034023
1.0797918559
1.0837507104
1.0868269771
1.0890928431
1.0906382368
1.0915711425
1.0920189482
1.0921293978
1.0920750199
1.0920566868
1.0923043423
1.0930751119
1.0946397030
1.0972501666
1.1010892695
1.1062034568
1.1124386354
1.1194160139
1.1265752717
1.1332917769
1.1390353736
1.1434954148
1.1466144338
1.1485241462
1.1494219867
1.1490683255
1.3917565049
1.3913653439
1.3911865674
1.3907933242
1.3901601227
1.3892476778
1.3880034317
1.3863636879
1.3842535513
1.3815879878
1.3782733906
1.3742034750
1.3692517934
1.3632576382
1.3559934368
1.3471102451
1.3360462823
1.3218665711
1.3030166199
1.2770091656
1.2402828553
1.1881015987
1.1281377497
1.1010967827
1.0788998457
1.0620588195
1.0543389941
1.0535306736
1.0567657233
1.0619361723
1.0677205649
1.0733562971
1.0784396110
1.0827835428
1.0863240635
1.0890678246
1.0910631268
1.0923841540
1.0931280133
1.0934147622
1.0933876685
1.0932177322
1.0931069300
1.0932880465
1.0940217511
1.0955812867
1.0982179551
1.1021084029
1.1072862712
1.1135787648
1.1205865513
1.1277334738
1.1343901548
1.1400354991
1.1443787385
1.1473861313
1.1492100540
1.1500617442
1.1497428644
1.3917102019
1.3913292001
1.3911518427
1.3907593611
1.3901264214
1.3892135722
1.3879674236
1.3863223535
1.3841996802
1.3815077529
1.3781424154
1.3739812236
1.3688740702
1.3626276891
1.3549728260
1.3455154505
1.3336681051
1.3185523210
1.2989061033
1.2730933352
1.2394657647
1.1973509507
1.1524685478
1.1207952035
1.0963775120
1.0784982488
1.0680730249
1.0640747748
1.0645960976
1.0677837805
1.0722121415
1.0769283452
1.0813686181
1.0852407402
1.0884189557
1.0908752928
1.0926379630
1.0937679442
1.0943529637
1.0945064034
1.0943670725
1.0941039033
1.0939190097
1.0940468170
1.0947503129
1.0963043624
1.0989593977
1.1028871033
1.1081111167
1.1144443041
1.1214718679
1.1286060629
1.1352145151
1.1407835094
1.1450375112
1.1479605075
1.1497200157
1.1505372091
1.1502431099
1.3913130089
1.3908905416
1.3907142346
1.3903223087
1.3896896114
1.3887766916
1.3875297564
1.3858821087
1.3837528302
1.3810462838
1.3776519831
1.3734379712
1.3682407773
1.3618501955
1.3539785747
1.3442198034
1.3320015719
1.3165335768
1.2968036897
1.2717213378
1.2405699407
1.2039290499
1.1658549515
1.1339651357
1.1084709244
1.0895213947
1.0773899372
1.0713907702
1.0700987991
1.0718877894
1.0753313356
1.0793769424
1.0833539779
1.0868921586
1.0898179533
1.0920765583
1.0936809865
1.0946824734
1.0951618527
1.0952275290
1.0950148938
1.0946911756
1.0944583880
1.0945519652
1.0952364252
1.0967877148
1.0994556527
1.1034085298
1.1086631966
1.1150228722
1.1220624741
1.1291867183
1.1357615422
1.1412784587
1.1454722595
1.1483387250
1.1500552956
1.1508495678
1.1505714288
1.3905452062
1.3900321673
1.3898565387
1.3894650726
1.3888327805
1.3879203423
1.3866739748
1.3850267689
1.3828971705
1.3801882572
1.3767874164
1.3725594666
1.3673365289
1.3609033234
1.3529680225
1.3431256515
1.3308208475
1.3153168143
1.2957271878
1.2712029904
1.2413856494
1.2071890851
1.1718668913
1.1403882709
1.1145370436
1.0950074587
1.0820138114
1.0750061701
1.0727722548
1.0738151923
1.0767300166
1.0804233576
1.0841692955
1.0875525590
1.0903702811
1.0925504859
1.0940962855
1.0950526932
1.0954963429
1.0955327968
1.0952956660
1.0949514603