<VTKFile type="UnstructuredGrid" version="0.1">
	<UnstructuredGrid>
		<Piece NumberOfPoints="13548" NumberOfCells="3387">
			<CellData>
				<DataArray type="Int32" Name="ghost" NumberOfComponents="1" Format="ascii">
1
1
1
1
1
1
1
1
1
1
1
1
1
1
1
1
1
1
1
1
1
1
1
1
1
1
1
1
1
1
1
1
1
1
1
1
1
1
1
1
1
1
1
1
1
1
1
1
1
1
1
1
1
1
1
1
1
1
0
0
0
0
0
0
0
0
0
0
0
0
0
0
0
0
0
0
0
0
1
1
0
0
0
0
0
0
0
0
0
0
0
0
0
0
0
0
0
0
0
0
0
0
0
0
0
0
0
0
0
0
0
0
0
1
1
0
0
0
0
0
0
0
0
0
0
0
0
0
0
0
0
0
0
0
0
1
1
0
0
0
0
0
0
0
0
0
0
0
0
0
0
0
0
0
0
0
0
0
0
0
0
0
0
0
0
0
0
0
0
0
1
1
0
0
0
0
0
0
0
0
0
0
0
0
0
0
0
0
0
0
0
0
1
1
0
0
0
0
0
0
0
0
0
0
0
0
0
0
0
0
0
0
0
0
0
0
0
0
0
0
0
0
0
0
0
0
0
1
1
0
0
0
0
0
0
0
0
0
0
0
0
0
0
0
0
0
0
0
0
1
1
0
0
0
0
0
0
0
0
0
0
0
0
0
0
0
0
0
0
0
0
0
0
0
0
0
0
0
0
0
0
0
0
0
1
1
0
0
0
0
0
0
0
0
0
0
0
0
0
0
0
0
0
0
0
0
1
1
0
0
0
0
0
0
0
0
0
0
0
0
0
0
0
0
0
0
0
0
0
0
0
0
0
0
0
0
0
0
0
0
0
1
1
0
0
0
0
0
0
0
0
0
0
0
0
0
0
0
0
0
0
0
0
1
1
0
0
0
0
0
0
0
0
0
0
0
0
0
0
0
0
0
0
0
0
0
0
0
0
0
0
0
0
0
0
0
0
0
1
1
0
0
0
0
0
0
0
0
0
0
0
0
0
0
0
0
0
0
0
0
1
1
0
0
0
0
0
0
0
0
0
0
0
0
0
0
0
0
0
0
0
0
0
0
0
0
0
0
0
0
0
0
0
0
0
1
1
0
0
0
0
0
0
0
0
0
0
0
0
0
0
0
0
0
0
0
0
1
1
0
0
0
0
0
0
0
0
0
0
0
0
0
0
0
0
0
0
0
0
0
0
0
0
0
0
0
0
0
0
0
0
0
1
1
0
0
0
0
0
0
0
0
0
0
0
0
0
0
0
0
0
0
0
0
1
1
0
0
0
0
0
0
0
0
0
0
0
0
0
0
0
0
0
0
0
0
0
0
0
0
0
0
0
0
0
0
0
0
0
1
1
0
0
0
0
0
0
0
0
0
0
0
0
0
0
0
0
0
0
0
0
1
1
0
0
0
0
0
0
0
0
0
0
0
0
0
0
0
0
0
0
0
0
0
0
0
0
0
0
0
0
0
0
0
0
0
1
1
0
0
0
0
0
0
0
0
0
0
0
0
0
0
0
0
0
0
0
0
1
1
0
0
0
0
0
0
0
0
0
0
0
0
0
0
0
0
0
0
0
0
0
0
0
0
0
0
0
0
0
0
0
0
0
1
1
0
0
0
0
0
0
0
0
0
0
0
0
0
0
0
0
0
0
0
0
1
1
0
0
0
0
0
0
0
0
0
0
0
0
0
0
0
0
0
0
0
0
0
0
0
0
0
0
0
0
0
0
0
0
0
1
1
0
0
0
0
0
0
0
0
0
0
0
0
0
0
0
0
0
0
0
0
1
1
0
0
0
0
0
0
0
0
0
0
0
0
0
0
0
0
0
0
0
0
0
0
0
0
0
0
0
0
0
0
0
0
0
1
1
0
0
0
0
0
0
0
0
0
0
0
0
0
0
0
0
0
0
0
0
1
1
0
0
0
0
0
0
0
0
0
0
0
0
0
0
0
0
0
0
0
0
0
0
0
0
0
0
0
0
0
0
0
0
0
1
1
0
0
0
0
0
0
0
0
0
0
0
0
0
0
0
0
0
0
0
0
1
1
0
0
0
0
0
0
0
0
0
0
0
0
0
0
0
0
0
0
0
0
0
0
0
0
0
0
0
0
0
0
0
0
0
1
1
0
0
0
0
0
0
0
0
0
0
0
0
0
0
0
0
0
0
0
0
1
1
0
0
0
0
0
0
0
0
0
0
0
0
0
0
0
0
0
0
0
0
0
0
0
0
0
0
0
0
0
0
0
0
0
1
1
0
0
0
0
0
0
0
0
0
0
0
0
0
0
0
0
0
0
0
0
1
1
0
0
0
0
0
0
0
0
0
0
0
0
0
0
0
0
0
0
0
0
0
0
0
0
0
0
0
0
0
0
0
0
0
1
1
0
0
0
0
0
0
0
0
0
0
0
0
0
0
0
0
0
0
0
0
1
1
0
0
0
0
0
0
0
0
0
0
0
0
0
0
0
0
0
0
0
0
0
0
0
0
0
0
0
0
0
0
0
0
0
1
1
0
0
0
0
0
0
0
0
0
0
0
0
0
0
0
0
0
0
0
0
1
1
0
0
0
0
0
0
0
0
0
0
0
0
0
0
0
0
0
0
0
0
0
0
0
0
0
0
0
0
0
0
0
0
0
1
1
0
0
0
0
0
0
0
0
0
0
0
0
0
0
0
0
0
0
0
0
1
1
0
0
0
0
0
0
0
0
0
0
0
0
0
0
0
0
0
0
0
0
0
0
0
0
0
0
0
0
0
0
0
0
0
1
1
0
0
0
0
0
0
0
0
0
0
0
0
0
0
0
0
0
0
0
0
1
1
0
0
0
0
0
0
0
0
0
0
0
0
0
0
0
0
0
0
0
0
0
0
0
0
0
0
0
0
0
0
0
0
0
1
1
0
0
0
0
0
0
0
0
0
0
0
0
0
0
0
0
0
0
0
0
1
1
0
0
0
0
0
0
0
0
0
0
0
0
0
0
0
0
0
0
0
0
0
0
0
0
0
0
0
0
0
0
0
0
0
1
1
0
0
0
0
0
0
0
0
0
0
0
0
0
0
0
0
0
0
0
0
1
1
0
0
0
0
0
0
0
0
0
0
0
0
0
0
0
0
0
0
0
0
0
0
0
0
0
0
0
0
0
0
0
0
0
1
1
0
0
0
0
0
0
0
0
0
0
0
0
0
0
0
0
0
0
0
0
1
1
0
0
0
0
0
0
0
0
0
0
0
0
0
0
0
0
0
0
0
0
0
0
0
0
0
0
0
0
0
0
0
0
0
1
1
0
0
0
0
0
0
0
0
0
0
0
0
0
0
0
0
0
0
0
0
0
1
1
0
0
0
0
0
0
0
0
0
0
0
0
0
0
0
0
0
0
0
0
0
0
0
0
0
0
0
0
0
0
0
0
0
0
1
1
0
0
0
0
0
0
0
0
0
0
0
0
0
0
0
0
0
0
0
0
0
0
0
0
0
0
0
0
0
0
0
0
0
0
0
0
0
0
0
0
0
0
0
0
0
0
0
0
0
0
0
0
0
0
0
0
0
1
1
0
0
0
0
0
0
0
0
0
0
0
0
0
0
0
0
0
0
0
0
0
0
0
0
0
0
0
0
0
0
0
0
0
0
0
0
0
0
0
0
0
0
0
0
0
0
0
0
0
0
0
0
0
0
0
0
0
1
1
0
0
0
0
0
0
0
0
0
0
0
0
0
0
0
0
0
0
0
0
0
0
0
0
0
0
0
0
0
0
0
0
0
0
0
0
0
0
0
0
0
0
0
0
0
0
0
0
0
0
0
0
0
0
0
0
0
1
1
0
0
0
0
0
0
0
0
0
0
0
0
0
0
0
0
0
0
0
0
0
0
0
0
0
0
0
0
0
0
0
0
0
0
0
0
0
0
0
0
0
0
0
0
0
0
0
0
0
0
0
0
0
0
0
0
0
1
1
0
0
0
0
0
0
0
0
0
0
0
0
0
0
0
0
0
0
0
0
0
0
0
0
0
0
0
0
0
0
0
0
0
0
0
0
0
0
0
0
0
0
0
0
0
0
0
0
0
0
0
0
0
0
0
0
0
1
1
0
0
0
0
0
0
0
0
0
0
0
0
0
0
0
0
0
0
0
0
0
0
0
0
0
0
0
0
0
0
0
0
0
0
0
0
0
0
0
0
0
0
0
0
0
0
0
0
0
0
0
0
0
0
0
0
0
1
1
0
0
0
0
0
0
0
0
0
0
0
0
0
0
0
0
0
0
0
0
0
0
0
0
0
0
0
0
0
0
0
0
0
0
0
0
0
0
0
0
0
0
0
0
0
0
0
0
0
0
0
0
0
0
0
0
0
1
1
0
0
0
0
0
0
0
0
0
0
0
0
0
0
0
0
0
0
0
0
0
0
0
0
0
0
0
0
0
0
0
0
0
0
0
0
0
0
0
0
0
0
0
0
0
0
0
0
0
0
0
0
0
0
0
0
0
1
1
0
0
0
0
0
0
0
0
0
0
0
0
0
0
0
0
0
0
0
0
0
0
0
0
0
0
0
0
0
0
0
0
0
0
0
0
0
0
0
0
0
0
0
0
0
0
0
0
0
0
0
0
0
0
0
0
0
1
1
0
0
0
0
0
0
0
0
0
0
0
0
0
0
0
0
0
0
0
0
0
0
0
0
0
0
0
0
0
0
0
0
0
0
0
0
0
0
0
0
0
0
0
0
0
0
0
0
0
0
0
0
0
0
0
0
0
1
1
0
0
0
0
0
0
0
0
0
0
0
0
0
0
0
0
0
0
0
0
0
1
1
0
0
0
0
0
0
0
0
0
0
0
0
0
0
0
0
0
0
0
0
0
0
0
0
0
0
0
0
0
0
0
0
0
0
1
1
0
0
0
0
0
0
0
0
0
0
0
0
0
0
0
0
0
0
0
0
1
1
0
0
0
0
0
0
0
0
0
0
0
0
0
0
0
0
0
0
0
0
0
0
0
0
0
0
0
0
0
0
0
0
0
1
1
0
0
0
0
0
0
0
0
0
0
0
0
0
0
0
0
0
0
0
0
1
1
0
0
0
0
0
0
0
0
0
0
0
0
0
0
0
0
0
0
0
0
0
0
0
0
0
0
0
0
0
0
0
0
0
1
1
0
0
0
0
0
0
0
0
0
0
0
0
0
0
0
0
0
0
0
0
1
1
0
0
0
0
0
0
0
0
0
0
0
0
0
0
0
0
0
0
0
0
0
0
0
0
0
0
0
0
0
0
0
0
0
1
1
0
0
0
0
0
0
0
0
0
0
0
0
0
0
0
0
0
0
0
0
1
1
0
0
0
0
0
0
0
0
0
0
0
0
0
0
0
0
0
0
0
0
0
0
0
0
0
0
0
0
0
0
0
0
0
1
1
0
0
0
0
0
0
0
0
0
0
0
0
0
0
0
0
0
0
0
0
1
1
0
0
0
0
0
0
0
0
0
0
0
0
0
0
0
0
0
0
0
0
0
0
0
0
0
0
0
0
0
0
0
0
0
1
1
0
0
0
0
0
0
0
0
0
0
0
0
0
0
0
0
0
0
0
0
1
1
0
0
0
0
0
0
0
0
0
0
0
0
0
0
0
0
0
0
0
0
0
0
0
0
0
0
0
0
0
0
0
0
0
1
1
0
0
0
0
0
0
0
0
0
0
0
0
0
0
0
0
0
0
0
0
1
1
0
0
0
0
0
0
0
0
0
0
0
0
0
0
0
0
0
0
0
0
0
0
0
0
0
0
0
0
0
0
0
0
0
1
1
0
0
0
0
0
0
0
0
0
0
0
0
0
0
0
0
0
0
0
0
1
1
0
0
0
0
0
0
0
0
0
0
0
0
0
0
0
0
0
0
0
0
0
0
0
0
0
0
0
0
0
0
0
0
0
1
1
0
0
0
0
0
0
0
0
0
0
0
0
0
0
0
0
0
0
0
0
1
1
0
0
0
0
0
0
0
0
0
0
0
0
0
0
0
0
0
0
0
0
0
0
0
0
0
0
0
0
0
0
0
0
0
1
1
0
0
0
0
0
0
0
0
0
0
0
0
0
0
0
0
0
0
0
0
1
1
0
0
0
0
0
0
0
0
0
0
0
0
0
0
0
0
0
0
0
0
0
0
0
0
0
0
0
0
0
0
0
0
0
1
1
0
0
0
0
0
0
0
0
0
0
0
0
0
0
0
0
0
0
0
0
1
1
0
0
0
0
0
0
0
0
0
0
0
0
0
0
0
0
0
0
0
0
0
0
0
0
0
0
0
0
0
0
0
0
0
1
1
0
0
0
0
0
0
0
0
0
0
0
0
0
0
0
0
0
0
0
0
1
1
0
0
0
0
0
0
0
0
0
0
0
0
0
0
0
0
0
0
0
0
0
0
0
0
0
0
0
0
0
0
0
0
0
1
1
0
0
0
0
0
0
0
0
0
0
0
0
0
0
0
0
0
0
0
0
1
1
0
0
0
0
0
0
0
0
0
0
0
0
0
0
0
0
0
0
0
0
0
0
0
0
0
0
0
0
0
0
0
0
0
1
1
0
0
0
0
0
0
0
0
0
0
0
0
0
0
0
0
0
0
0
0
1
1
0
0
0
0
0
0
0
0
0
0
0
0
0
0
0
0
0
0
0
0
0
0
0
0
0
0
0
0
0
0
0
0
0
1
1
0
0
0
0
0
0
0
0
0
0
0
0
0
0
0
0
0
0
0
0
1
1
0
0
0
0
0
0
0
0
0
0
0
0
0
0
0
0
0
0
0
0
0
0
0
0
0
0
0
0
0
0
0
0
0
1
1
0
0
0
0
0
0
0
0
0
0
0
0
0
0
0
0
0
0
0
0
1
1
0
0
0
0
0
0
0
0
0
0
0
0
0
0
0
0
0
0
0
0
0
0
0
0
0
0
0
0
0
0
0
0
0
1
1
0
0
0
0
0
0
0
0
0
0
0
0
0
0
0
0
0
0
0
0
1
1
0
0
0
0
0
0
0
0
0
0
0
0
0
0
0
0
0
0
0
0
0
0
0
0
0
0
0
0
0
0
0
0
0
1
1
0
0
0
0
0
0
0
0
0
0
0
0
0
0
0
0
0
0
0
0
1
1
0
0
0
0
0
0
0
0
0
0
0
0
0
0
0
0
0
0
0
0
0
0
0
0
0
0
0
0
0
0
0
0
0
1
1
0
0
0
0
0
0
0
0
0
0
0
0
0
0
0
0
0
0
0
0
1
1
0
0
0
0
0
0
0
0
0
0
0
0
0
0
0
0
0
0
0
0
0
0
0
0
0
0
0
0
0
0
0
0
0
1
1
0
0
0
0
0
0
0
0
0
0
0
0
0
0
0
0
0
0
0
0
1
1
0
0
0
0
0
0
0
0
0
0
0
0
0
0
0
0
0
0
0
0
0
0
0
0
0
0
0
0
0
0
0
0
0
1
1
0
0
0
0
0
0
0
0
0
0
0
0
0
0
0
0
0
0
0
0
1
1
0
0
0
0
0
0
0
0
0
0
0
0
0
0
0
0
0
0
0
0
0
0
0
0
0
0
0
0
0
0
0
0
0
1
1
1
1
1
1
1
1
1
1
1
1
1
1
1
1
1
1
1
1
1
1
1
1
1
1
1
1
1
1
1
1
1
1
1
1
1
1
1
1
1
1
1
1
1
1
1
1
1
1
1
1
1
1
1
1
1
1
				</DataArray>
				<DataArray type="Float64" Name="h" NumberOfComponents="1" Format="ascii">
1.2029139181
1.2024294976
1.2026131372
1.2029759987
1.2035093022
1.2042001889
1.2050319480
1.2059843714
1.2070343113
1.2081561313
1.2093223362
1.2105043122
1.2116729107
1.2127992283
1.2138553791
1.2148150917
1.2156544672
1.2163526037
1.2168920533
1.2172593583
1.2174453492
1.2174453492
1.1589394637
1.1589974642
1.1592721350
1.1598211537
1.1606408716
1.1617258661
1.1630686062
1.1646589019
1.1664839368
1.1685278448
1.1707713487
1.1731920625
1.1757644099
1.1784598516
1.1812477210
1.1840956668
1.1869704528
1.1898390422
1.1926692202
1.1954305211
1.1980950861
1.2006379078
1.2030373610
1.2052753722
1.2073371027
1.2092110179
1.2108884709
1.2123630890
1.2136306804
1.2146885997
1.2155351930
1.2161698112
1.2165922137
1.2168022508
1.2168022508
1.2024294976
1.2019660259
1.2021481844
1.2025080701
1.2030368548
1.2037216366
1.2045456803
1.2054887786
1.2065278315
1.2076373112
1.2087899013
1.2099572492
1.2111105516
1.2122213299
1.2132621893
1.2142073935
1.2150335995
1.2157204425
1.2162509547
1.2166120718
1.2167948950
1.2174453492
1.1589974642
1.1591292682
1.1594100578
1.1599711998
1.1608085217
1.1619158421
1.1632846544
1.1649035947
1.1667585290
1.1688321775
1.1711038070
1.1735496153
1.1761427206
1.1788534583
1.1816502937
1.1845003226
1.1873700658
1.1902266046
1.1930381675
1.1957750207
1.1984102640
1.2009200009
1.2032838016
1.2054847959
1.2075093009
1.2093468554
1.2109897679
1.2124324925
1.2136715420
1.2147048454
1.2155312027
1.2161503168
1.2165621963
1.2167668501
1.2168022508
1.2023592404
1.2019090801
1.2020906474
1.2024493459
1.2029763367
1.2036587068
1.2044797147
1.2054191560
1.2064539495
1.2075586074
1.2087058801
1.2098675130
1.2110148332
1.2121195246
1.2131543822
1.2140938794
1.2149148918
1.2155972688
1.2161242374
1.2164828950
1.2166644579
1.2173071344
1.1592037991
1.1593354304
1.1596154794
1.1601751473
1.1610103109
1.1621148566
1.1634803586
1.1650955435
1.1669463703
1.1690156511
1.1712827399
1.1737239135
1.1763123590
1.1790184704
1.1818107582
1.1846563709
1.1875218271
1.1903742336
1.1931818506
1.1959149777
1.1985467475
1.2010532927
1.2034142061
1.2056126329
1.2076348972
1.2094705348
1.2111118424
1.2125532555
1.2137912609
1.2148237589
1.2156495205
1.2162682207
1.2166798450
1.2168843859
1.2169274850
1.2022156519
1.2017920083
1.2019724259
1.2023288150
1.2028523135
1.2035299843
1.2043450702
1.2052773696
1.2063038347
1.2073990535
1.2085359063
1.2096863289
1.2108219042
1.2119146358
1.2129376925
1.2138659612
1.2146767500
1.2153503317
1.2158703192
1.2162241300
1.2164032092
1.2170304811
1.1596119349
1.1597430923
1.1600217085
1.1605785224
1.1614095049
1.1625086704
1.1638677462
1.1654756291
1.1673184532
1.1693792022
1.1716373936
1.1740694517
1.1766486937
1.1793456257
1.1821288507
1.1849656184
1.1878224970
1.1906666584
1.1934664288
1.1961921721
1.1988170812
1.2013173412
1.2036725845
1.2058659816
1.2078838658
1.2097157640
1.2113539474
1.2127928118
1.2140287923
1.2150597312
1.2158843419
1.2165022438
1.2169133769
1.2171177017
1.2171758383
1.2019950448
1.2016110138
1.2017897600
1.2021427908
1.2026612085
1.2033320373
1.2041384936
1.2050603761
1.2060746825
1.2071561098
1.2082777253
1.2094117426
1.2105301183
1.2116053241
1.2126110775
1.2135228734
1.2143186559
1.2149793217
1.2154890535
1.2158357418
1.2160111699
1.2166156087
1.1602179416
1.1603477179
1.1606241903
1.1611767340
1.1620014610
1.1630925766
1.1644420360
1.1660389891
1.1678698287
1.1699177917
1.1721626355
1.1745810011
1.1771463964
1.1798294923
1.1825990307
1.1854224041
1.1882662815
1.1910979388
1.1938858025
1.1966003324
1.1992148102
1.2017054978
1.2040520869
1.2062377862
1.2082489449
1.2100750785
1.2117084234
1.2131433201
1.2143761296
1.2154046116
1.2162273963
1.2168440231
1.2172543660
1.2174583396
1.2175383708
1.2016920995
1.2013605946
1.2015372007
1.2018859306
1.2023978372
1.2030598903
1.2038552662
1.2047637582
1.2057624179
1.2068260781
1.2079280442
1.2090408852
1.2101370395
1.2111895833
1.2121729442
1.2130634055
1.2138397383
1.2144836523
1.2149800742
1.2153175144
1.2154882005
1.2160626675
1.1610156747
1.1611423110
1.1614159044
1.1619627160
1.1627790485
1.1638593660
1.1651959306
1.1667782315
1.1685930067
1.1706238294
1.1728507743
1.1752507668
1.1777975646
1.1804620548
1.1832131613
1.1860184549
1.1888447549
1.1916594786
1.1944311856
1.1971304630
1.1997307102
1.2022082926
1.2045429837
1.2067180483
1.2087198626
1.2105379351
1.2121644642
1.2135937256
1.2148219914
1.2158469197
1.2166670374
1.2172817837
1.2176909498
1.2178943927
1.2180024665
1.2013002069
1.2010338584
1.2012079233
1.2015515444
1.2020557108
1.2027073191
1.2034894887
1.2043819974
1.2053619522
1.2064043406
1.2074827476
1.2085701643
1.2096396048
1.2106648712
1.2116212464
1.2124859666
1.2132388060
1.2138624634
1.2143427754
1.2146690130
1.2148339523
1.2153716907
1.1619966424
1.1621173449
1.1623872956
1.1629268589
1.1637325849
1.1647992698
1.1661195679
1.1676833992
1.1694779371
1.1714871754
1.1736915830
1.1760684365
1.1785917994
1.1812328224
1.1839606509
1.1867430619
1.1895470723
1.1923402737
1.1950913895
1.1977711639
1.2003531432
1.2028138250
1.2051330904
1.2072942830
1.2092838239
1.2110912263
1.2127086555
1.2141303225
1.2153524029
1.2163724428
1.2171888532
1.2178009590
1.2182084561
1.2184111353
1.2185524748
1.2008120240
1.2006230533
1.2007942535
1.2011321134
1.2016275416
1.2022673411
1.2030345530
1.2039089221
1.2048676044
1.2058857515
1.2069372562
1.2079955845
1.2090344031
1.2100283440
1.2109536731
1.2117887269
1.2125144441
1.2131146784
1.2135763346
1.2138895838
1.2140478545
1.2145425755
1.1631502383
1.1632610664
1.1635265731
1.1640573042
1.1648501209
1.1659002358
1.1672007898
1.1687422325
1.1705122668
1.1724953937
1.1746725525
1.1770214347
1.1795164619
1.1821290907
1.1848287217
1.1875833579
1.1903602564
1.1931272113
1.1958531359
1.1985089586
1.2010684016
1.2035081246
1.2058081462
1.2079519164
1.2099259267
1.2117197148
1.2133254280
1.2147372217
1.2159511786
1.2169647316
1.2177761720
1.2183847036
1.2187899205
1.2189915425
1.2191702546
1.2002197311
1.2001197851
1.2002878827
1.2006195003
1.2011054481
1.2017324114
1.2024833260
1.2033378788
1.2042732573
1.2052647727
1.2062866389
1.2073128303
1.2083177241
1.2092768650
1.2101676112
1.2109695312
1.2116648780
1.2122388202
1.2126794892
1.2129781001
1.2131288460
1.2135748238
1.1644635467
1.1645594064
1.1648196234
1.1653398584
1.1661173629
1.1671478644
1.1684250986
1.1699401530
1.1716813603
1.1736338161
1.1757790044
1.1780950907
1.1805569003
1.1831362305
1.1858027639
1.1885247381
1.1912696859
1.1940056245
1.1967016764
1.1993289788
1.2018614565
1.2042759617
1.2065526832
1.2086752105
1.2106301384
1.2124070582
1.2139981245
1.2153974579
1.2166010623
1.2176062677
1.2184112523
1.2190151004
1.2194173047
1.2196175137
1.2198364295
1.1995157030
1.1995156342
1.1996804817
1.2000055565
1.2004815510
1.2010950049
1.2018287158
1.2026622780
1.2035728803
1.2045359720
1.2055260820
1.2065177030
1.2074859561
1.2084073594
1.2092604503
1.2100261469
1.2106881610
1.2112331389
1.2116506111
1.2119329984
1.2120753894
1.2124675653
1.1659213870
1.1659961287
1.1662501511
1.1667581257
1.1675177948
1.1685255235
1.1697757701
1.1712603821
1.1729684284
1.1748856872
1.1769942573
1.1792728290
1.1816966676
1.1842379361
1.1868666148
1.1895511735
1.1922594405
1.1949596712
1.1976212078
1.2002154143
1.2027164421
1.2051013659
1.2073505792
1.2094478494
1.2113799145
1.2131364578
1.2147096774
1.2160936914
1.2172844523
1.2182792087
1.2190760435
1.2196739333
1.2200722771
1.2202706572
1.2205312189
1.1986932742
1.1988028843
1.1989644232
1.1992828342
1.1997486694
1.2003482912
1.2010643196
1.2018762118
1.2027611128
1.2036945708
1.2046513960
1.2056065866
1.2065360096
1.2074171877
1.2082299046
1.2089565274
1.2095823711
1.2100957408
1.2104877688
1.2107522868
1.2108854494
1.2112195280
1.1675069011
1.1675535131
1.1678003473
1.1682941486
1.1690332879
1.1700149274
1.1712344053
1.1726844689
1.1743550377
1.1762326592
1.1783001085
1.1805366413
1.1829179852
1.1854166806
1.1880030090
1.1906456535
1.1933127471
1.1959727752
1.1985953122
1.2011519563
1.2036171053
1.2059680843
1.2081855275
1.2102534221
1.2121586952
1.2138911702
1.2154431350
1.2168087507
1.2179839574
1.2189659570
1.2197527659
1.2203432754
1.2207368069
1.2209328876
1.2212350987
1.1977473402
1.1979750860
1.1981333433
1.1984451409
1.1989008657
1.1994866667
1.2001849399
1.2009749498
1.2018337378
1.2027368875
1.2036594346
1.2045768299
1.2054656625
1.2063044526
1.2070742626
1.2077590028
1.2083457345
1.2088246304
1.2091886887
1.2094334323
1.2095563346
1.2098288808
1.1692018775
1.1692127836
1.1694512969
1.1699287833
1.1706444425
1.1715964525
1.1727812303
1.1741925880
1.1758214163
1.1776551137
1.1796771807
1.1818674607
1.1842021483
1.1866541535
1.1891940461
1.1917906884
1.1944125084
1.1970282029
1.1996075642
1.2021224391
1.2045474812
1.2068602916
1.2090417805
1.2110761991
1.2129507156
1.2146553483
1.2161825325
1.2175265287
1.2186833171
1.2196500996
1.2204248677
1.2210064591
1.2213941427
1.2215874080
1.2219298554
1.1966753358
1.1970280068
1.1971830863
1.1974884755
1.1979343692
1.1985066615
1.1991874709
1.1999558015
1.2007885153
1.2016611451
1.2025488645
1.2034274934
1.2042742613
1.2050686542
1.2057930082
1.2064328328
1.2069771005
1.2074181046
1.2077510488
1.2079735646
1.2080848418
1.2082933755
1.1709873152
1.1709547529
1.1711835813
1.1716422392
1.1723310625
1.1732495539
1.1743954714
1.1757638850
1.1773467824
1.1791324819
1.1811052366
1.1832454745
1.1855298352
1.1879315688
1.1904214968
1.1929686157
1.1955416055
1.1981093476
1.2006418299
1.2031111388
1.2054921973
1.2077629006
1.2099044692
1.2119014641
1.2137413496
1.2154144003
1.2169132646
1.2182323704
1.2193678026
1.2203168221
1.2210774484
1.2216485082
1.2220292510
1.2222191522
1.2225991006
1.1954780638
1.1959604771
1.1961125433
1.1964118543
1.1968483817
1.1974077213
1.1980716510
1.1988188397
1.1996258718
1.2004681288
1.2013207916
1.2021599308
1.2029632936
1.2037112184
1.2043872875
1.2049786396
1.2054763030
1.2058749952
1.2061726087
1.2063694850
1.2064671842
1.2066102626
1.1728446177
1.1727610616
1.1729784429
1.1734151371
1.1740731036
1.1749536227
1.1760561406
1.1773772098
1.1789100372
1.1806439027
1.1825638041
1.1846507149
1.1868816641
1.1892301812
1.1916672825
1.1941620374
1.1966832993
1.1992000952
1.2016825798
1.2041030691
1.2064367454
1.2086618152
1.2107598423
1.2127157430
1.2145173349
1.2161552140
1.2176223140
1.2189133071
1.2200244572
1.2209531556
1.2216975127
1.2222563965
1.2226290784
1.2228150489
1.2232286066
1.1941604004
1.1947751305
1.1949243904
1.1952180415
1.1956458020
1.1961929191
1.1968407676
1.1975675900
1.1983495894
1.1991618551
1.1999794336
1.2007784511
1.2015370199
1.2022361538
1.2028605377
1.2033989578
1.2038446096
1.2041949923
1.2044513261
1.2046175761
1.2046987427
1.2047760525
1.1747566100
1.1746152146
1.1748186984
1.1752292513
1.1758512622
1.1766884674
1.1777424500
1.1790115010
1.1804901375
1.1821685979
1.1840325584
1.1860634468
1.1882385817
1.1905316759
1.1929138498
1.1953541781
1.1978216003
1.2002851821
1.2027152573
1.2050843263
1.2073678222
1.2095442709
1.2115956078
1.2135071489
1.2152671225
1.2168665135
1.2182986167
1.2195584306
1.2206424815
1.2215483706
1.2222743722
1.2228194567
1.2231829652
1.2233644374
1.2238067878
1.1927321408
1.1934793077
1.1936259877
1.1939144440
1.1943341094
1.1948698345
1.1955025238
1.1962098981
1.1969676586
1.1977504468
1.1985329806
1.1992912311
1.2000033839
1.2006509451
1.2012194712
1.2016991827
1.2020855847
1.2023793433
1.2025857736
1.2027138662
1.2027738324
1.2027862663
1.1767087695
1.1765038020
1.1766897147
1.1770681959
1.1776474384
1.1784346205
1.1794340505
1.1806459902
1.1820663006
1.1836860792
1.1854915351
1.1874643783
1.1895820624
1.1918183434
1.1941443370
1.1965290356
1.1989413234
1.2013502739
1.2037263013
1.2060420980
1.2082733135
1.2103988002
1.2124008857
1.2142653247
1.2159808125
1.2175387912
1.2189329942
1.2201588300
1.2212131745
1.2220939249
1.2227995997
1.2233293389
1.2236826077
1.2238590327
1.2243247107
1.1912082980
1.1920854677
1.1922297878
1.1925135119
1.1929257572
1.1934509370
1.1940694120
1.1947582940
1.1954926453
1.1962464893
1.1969939785
1.1977106695
1.1983745064
1.1989670665
1.1994744958
1.1998882083
1.2002057836
1.2004312912
1.2005752354
1.2006535257
1.2006846285
1.2006343125
1.1786912571
1.1784184653
1.1785808946
1.1789184387
1.1794453923
1.1801738312
1.1811114422
1.1822606203
1.1836184324
1.1851765945
1.1869215757
1.1888351009
1.1908945268
1.1930734701
1.1953428867
1.1976716405
1.2000283996
1.2023820721
1.2047032684
1.2069647358
1.2091423332
1.2112152359
1.2131661809
1.2149813935
1.2166500871
1.2181642274
1.2195180626
1.2207074954
1.2217298370
1.2225833685
1.2232669358
1.2237799209
1.2241219705
1.2242928387
1.2247760344
1.1896092250
1.1906114429
1.1907535953
1.1910330046
1.1914384557
1.1919538771
1.1925590376
1.1932303399
1.1939420683
1.1946674347
1.1953797306
1.1960537393
1.1966668616
1.1972002705
1.1976403670
1.1979791771
1.1982156094
1.1983570198
1.1984199391
1.1984300630
1.1984191565
1.1983094122
1.1807012161
1.1803580986
1.1804869318
1.1807696795
1.1812306472
1.1818887528
1.1827556894
1.1838358456
1.1851270526
1.1866211435
1.1883043933
1.1901582126
1.1921594851
1.1942814834
1.1964948312
1.1987682680
1.2010698066
1.2033685001
1.2056349023
1.2078417981
1.2099652368
1.2119847067
1.2138833613
1.2156479204
1.2172681608
1.2187366312
1.2200481664
1.2211992431
1.2221876924
1.2230122628
1.2236722096
1.2241672292
1.2244972087
1.2246620717
1.2251569460
1.1879605864
1.1890805544
1.1892206839
1.1894961247
1.1898953071
1.1904016600
1.1909943077
1.1916488595
1.1923386675
1.1930358980
1.1937126463
1.1943423073
1.1949019973
1.1953723741
1.1957383786
1.1959913147
1.1961309515
1.1961670658
1.1961217443
1.1960342357
1.1959576320
1.1957928820
1.1827461992
1.1823321858
1.1824090397
1.1826146134
1.1829895351
1.1835618997
1.1843475353
1.1853520151
1.1865729198
1.1880012674
1.1896224976
1.1914172053
1.1933615036
1.1954279096
1.1975866205
1.1998060770
1.2020536833
1.2042985279
1.2065109821
1.2086638749
1.2107334161
1.2126994019
1.2145453966
1.2162586350
1.2178294864
1.2192511347
1.2205190639
1.2216303970
1.2225835615
1.2233778519
1.2240130085
1.2244891102
1.2248063410
1.2249648344
1.2254658207
1.1862925189
1.1875209319
1.1876591290
1.1879308476
1.1883241688
1.1888220087
1.1894028304
1.1900413470
1.1907098917
1.1913790193
1.1920202145
1.1926073149
1.1931146851
1.1935197940
1.1938048988
1.1939587366
1.1939794351
1.1938781948
1.1936847629
1.1934516500
1.1932646872
1.1930500548
1.1848506366
1.1843670913
1.1843565966
1.1844479550
1.1847074520
1.1851740615
1.1858663154
1.1867887885
1.1879368119
1.1892991360
1.1908593689
1.1925967667
1.1944863390
1.1964996150
1.1986060221
1.2007735872
1.2029694004
1.2051622505
1.2073223701
1.2094225864
1.2114392711
1.2133525017
1.2151462567
1.2168082913
1.2183295936
1.2197040126
1.2209277326
1.2219985820
1.2229156497
1.2236788432
1.2242884538
1.2247450029
1.2250490215
1.2252008891
1.2257029615
1.1846387035
1.1859647275
1.1861010226
1.1863691751
1.1867569319
1.1872467125
1.1878162840
1.1884395174
1.1890871559
1.1897304632
1.1903403405
1.1908870428
1.1913421957
1.1916800551
1.1918787045
1.1919217432
1.1918015293
1.1915244467
1.1911205056
1.1906598165
1.1902740491
1.1900144556
1.1870674446
1.1865174724
1.1863477961
1.1862627555
1.1863646011
1.1867009417
1.1872877387
1.1881237936
1.1891988202
1.1904971699
1.1919993804
1.1936827237
1.1955210776
1.1974846875
1.1995420431
1.2016606872
1.2038075285
1.2059508973
1.2080609441
1.2101105066
1.2120760837
1.2139380392
1.2156807497
1.2172924886
1.2187648723
1.2200924401
1.2212721040
1.2223024397
1.2231832450
1.2239150921
1.2244988746
1.2249356042
1.2252261994
1.2253713138
1.2258702113
1.1830352512
1.1844470836
1.1845814621
1.1848461321
1.1852285352
1.1857106369
1.1862696075
1.1868780788
1.1875080443
1.1881295905
1.1887107868
1.1892197450
1.1896253195
1.1898976464
1.1900087289
1.1899333322
1.1896516725
1.1891551004
1.1884593393
1.1876334531
1.1868576130
1.1865606473
1.1895013062
1.1888893334
1.1884071867
1.1880413032
1.1879279073
1.1881078426
1.1885809054
1.1893311927
1.1903377177
1.1915777929
1.1930276195
1.1946621036
1.1964539914
1.1983724958
1.2003849030
1.2024583013
1.2045594615
1.2066565228
1.2087193819
1.2107209345
1.2126378340
1.2144507050
1.2161443149
1.2177074460
1.2191323400
1.2204142310
1.2215507749
1.2225413136
1.2233863832
1.2240872477
1.2246454380
1.2250624889
1.2253397327
1.2254781168
1.2259705024
1.1815189304
1.1830044152
1.1831368330
1.1833980443
1.1837752582
1.1842500733
1.1847989524
1.1853955255
1.1860109993
1.1866134570
1.1871696665
1.1876460853
1.1880088613
1.1882235245
1.1882544205
1.1880636473
1.1876107012
1.1868542826
1.1857625615
1.1843482304
1.1827677325
1.1824353798
1.1923585278
1.1916895112
1.1905530549
1.1897347134
1.1893369602
1.1893424790
1.1897055691
1.1903811714
1.1913313177
1.1925239656
1.1939304691
1.1955234818
1.1972748829
1.1991537547
1.2011260705
1.2031586847
1.2052179861
1.2072722336
1.2092912476
1.2112479590
1.2131191747
1.2148857856
1.2165329286
1.2180498820
1.2194294965
1.2206676880
1.2217628457
1.2227150766
1.2235256554
1.2241965548
1.2247299503
1.2251279113
1.2253921964
1.2255240553
1.2260076176
1.1801256519
1.1816728791
1.1818032633
1.1820610234
1.1824331809
1.1829010583
1.1834415829
1.1840285231
1.1846315036
1.1852181829
1.1857548539
1.1862069762
1.1865387371
1.1867118352
1.1866832782
1.1864008219
1.1857954215
1.1847688873
1.1831769526
1.1808180835
1.1774777367
1.1771070231
1.1960549902
1.1953326976
1.1927502650
1.1912159205
1.1904790223
1.1903254133
1.1906100317
1.1912406050
1.1921577921
1.1933204272
1.1946964720
1.1962574220
1.1979755185
1.1998207993
1.2017584442
1.2037543729
1.2057761285
1.2077915666
1.2097705422
1.2116861066
1.2135152395
1.2152390644
1.2168430812
1.2183170409
1.2196543713
1.2208516374
1.2219079333
1.2228241048
1.2236021482
1.2242447263
1.2247546506
1.2251345208
1.2253865191
1.2255121976
1.2259856507
1.1788890437
1.1804868568
1.1806151382
1.1808693950
1.1812366400
1.1816981819
1.1822318061
1.1828100406
1.1834026060
1.1839775447
1.1845013978
1.1849397962
1.1852568984
1.1854136230
1.1853642591
1.1850483443
1.1843729154
1.1831715984
1.1811051809
1.1774112415
1.1702609896
1.1698546438
1.2014521482
1.2006756322
1.1947607372
1.1921767733
1.1911501351
1.1909425672
1.1912341404
1.1918777660
1.1927994596
1.1939561876
1.1953176141
1.1968573713
1.1985497980
1.2003676833
1.2022756015
1.2042398848
1.2062283487
1.2082090703
1.2101520448
1.2120304998
1.2138215626
1.2155065911
1.2170714240
1.2185062439
1.2198050067
1.2209648740
1.2219855919
1.2228686949
1.2236168553
1.2242333865
1.2247217017
1.2250849041
1.2253255802
1.2254455715
1.2259086224
1.1778389480
1.1794773073
1.1796033835
1.1798540664
1.1802163345
1.1806722482
1.1811989794
1.1817692339
1.1823534623
1.1829205343
1.1834381219
1.1838736714
1.1841944500
1.1843669876
1.1843568896
1.1841282765
1.1836448263
1.1828780670
1.1818377132
1.1806716714
1.1800454950
1.1853438282
1.1833211662
1.1754392099
1.1824673059
1.1897025711
1.1904040824
1.1905080482
1.1906363117
1.1909558932
1.1915005312
1.1922682820
1.1932484750
1.1944278290
1.1957911499
1.1973202672
1.1989942448
1.2007901468
1.2026733577
1.2046104441
1.2065698985
1.2085200583
1.2104312446
1.2122768777
1.2140342419
1.2156849193
1.2172150483
1.2186151891
1.2198797599
1.2210064473
1.2219955751
1.2228492913
1.2235708744
1.2241642232
1.2246332947
1.2249816488
1.2252122395
1.2253271724
1.2257804191
1.1770005296
1.1786706911
1.1787944381
1.1790413406
1.1793986396
1.1798484774
1.1803680362
1.1809307744
1.1815079331
1.1820695096
1.1825847599
1.1830235231
1.1833567764
1.1835568356
1.1835988102
1.1834626240
1.1831377011
1.1826354309
1.1820167668
1.1814550946
1.1814148838
1.1835400761
1.1830493110
1.1751697566
1.1812425203
1.1862960629
1.1882672620
1.1893560832
1.1901208132
1.1908257011
1.1915957460
1.1924910521
1.1935393140
1.1947503454
1.1961230116
1.1976475365
1.1993080605
1.2010857928
1.2029485787
1.2048624630
1.2067968748
1.2087206186
1.2106043112
1.2124215857
1.2141499046
1.2157710466
1.2172713992
1.2186418341
1.2198771513
1.2209754744
1.2219376107
1.2227662254
1.2234651100
1.2240386606
1.2244912980
1.2248269728
1.2250489545
1.2251595761
1.2256043584
1.1763938145
1.1780882418
1.1782095374
1.1784523322
1.1788041739
1.1792471911
1.1797591508
1.1803141619
1.1808843463
1.1814409386
1.1819548648
1.1823983369
1.1827457344
1.1829741543
1.1830655624
1.1830094003
1.1828069929
1.1824813628
1.1820935977
1.1817700805
1.1817542241
1.1824860340
1.1821615661
1.1796377437
1.1824853121
1.1854924096
1.1873731553
1.1887091342
1.1897522846
1.1906784851
1.1916018308
1.1925943492
1.1936988929
1.1949380343
1.1963201033
1.1978418130
1.1994914121
1.2012535566
1.2030989821
1.2049931824
1.2069062138
1.2088075412
1.2106680517
1.2124615689
1.2141657155
1.2157624303
1.2172382911
1.2185844051
1.2197958629
1.2208711231
1.2218113668
1.2226196613
1.2233001977
1.2238577627
1.2242971421
1.2246225954
1.2248376420
1.2249447958
1.2253830101
1.1760333831
1.1777454962
1.1778642036
1.1781025570
1.1784481762
1.1788835966
1.1793871182
1.1799334694
1.1804956231
1.1810459646
1.1815569040
1.1820026463
1.1823602505
1.1826102820
1.1827391996
1.1827418667
1.1826249498
1.1824140375
1.1821625696
1.1819611147
1.1819424569
1.1822290516
1.1821796699
1.1816322694
1.1832995558
1.1853243441
1.1869819033
1.1883437275
1.1894945077
1.1905333110
1.1915463710
1.1926006080
1.1937423963
1.1950000074
1.1963872469
1.1979049945
1.1995443676
1.2012925948
1.2031228978
1.2050004501
1.2068955080
1.2087783501
1.2106200352
1.2123945289
1.2140795692
1.2156572068
1.2171141467
1.2184416483
1.2196349939
1.2206928664
1.2216166988
1.2224098296
1.2230767250
1.2236224395
1.2240520129
1.2243699188
1.2245798518
1.2246844527
1.2251183419
1.1759283927
1.1776522238
1.1777682542
1.1780018025
1.1783406231
1.1787675486
1.1792613913
1.1797974762
1.1803495511
1.1808909269
1.1813951182
1.1818377495
1.1821976908
1.1824577121
1.1826069325
1.1826431190
1.1825752489
1.1824288493
1.1822508372
1.1821110009
1.1820944835
1.1822533080
1.1823828611
1.1825483530
1.1837639489
1.1853191647
1.1867950252
1.1881175967
1.1892945787
1.1903784450
1.1914329377
1.1925170129
1.1936761670
1.1949406188
1.1963267975
1.1978379408
1.1994667493
1.2012020660
1.2030188600
1.2048822653
1.2067629155
1.2086312705
1.2104585820
1.2122189035
1.2138900466
1.2154541250
1.2168979028
1.2182127081
1.2193939130
1.2204403083
1.2213534448
1.2221368012
1.2227949803
1.2233331783
1.2237565661
1.2240697321
1.2242764629
1.2243794690
1.2248114001
1.1760826147
1.1778124535
1.1779257433
1.1781541770
1.1784857229
1.1789035071
1.1793867272
1.1799111767
1.1804511474
1.1809806026
1.1814737459
1.1819069649
1.1822600122
1.1825166475
1.1826671101
1.1827103094
1.1826559731
1.1825291447
1.1823732319
1.1822486938
1.1822234662
1.1823383987
1.1825325136
1.1829085776
1.1839462607
1.1852934558
1.1866596322
1.1879365774
1.1891030646
1.1901905218
1.1912510087
1.1923384290
1.1934968818
1.1947568495
1.1961356384
1.1976373345
1.1992553566
1.2009791283
1.2027847595
1.2046373403
1.2065073663
1.2083654154