<VTKFile type="UnstructuredGrid" version="0.1">
	<UnstructuredGrid>
		<Piece NumberOfPoints="13548" NumberOfCells="3387">
			<CellData>
				<DataArray type="Int32" Name="ghost" NumberOfComponents="1" Format="ascii">
1
1
1
1
1
1
1
1
1
1
1
1
1
1
1
1
1
1
1
1
1
1
1
1
1
1
1
1
1
1
1
1
1
1
1
1
1
1
1
1
1
1
1
1
1
1
1
1
1
1
1
1
1
1
1
1
1
1
0
0
0
0
0
0
0
0
0
0
0
0
0
0
0
0
0
0
0
0
1
1
0
0
0
0
0
0
0
0
0
0
0
0
0
0
0
0
0
0
0
0
0
0
0
0
0
0
0
0
0
0
0
0
0
1
1
0
0
0
0
0
0
0
0
0
0
0
0
0
0
0
0
0
0
0
0
1
1
0
0
0
0
0
0
0
0
0
0
0
0
0
0
0
0
0
0
0
0
0
0
0
0
0
0
0
0
0
0
0
0
0
1
1
0
0
0
0
0
0
0
0
0
0
0
0
0
0
0
0
0
0
0
0
1
1
0
0
0
0
0
0
0
0
0
0
0
0
0
0
0
0
0
0
0
0
0
0
0
0
0
0
0
0
0
0
0
0
0
1
1
0
0
0
0
0
0
0
0
0
0
0
0
0
0
0
0
0
0
0
0
1
1
0
0
0
0
0
0
0
0
0
0
0
0
0
0
0
0
0
0
0
0
0
0
0
0
0
0
0
0
0
0
0
0
0
1
1
0
0
0
0
0
0
0
0
0
0
0
0
0
0
0
0
0
0
0
0
1
1
0
0
0
0
0
0
0
0
0
0
0
0
0
0
0
0
0
0
0
0
0
0
0
0
0
0
0
0
0
0
0
0
0
1
1
0
0
0
0
0
0
0
0
0
0
0
0
0
0
0
0
0
0
0
0
1
1
0
0
0
0
0
0
0
0
0
0
0
0
0
0
0
0
0
0
0
0
0
0
0
0
0
0
0
0
0
0
0
0
0
1
1
0
0
0
0
0
0
0
0
0
0
0
0
0
0
0
0
0
0
0
0
1
1
0
0
0
0
0
0
0
0
0
0
0
0
0
0
0
0
0
0
0
0
0
0
0
0
0
0
0
0
0
0
0
0
0
1
1
0
0
0
0
0
0
0
0
0
0
0
0
0
0
0
0
0
0
0
0
1
1
0
0
0
0
0
0
0
0
0
0
0
0
0
0
0
0
0
0
0
0
0
0
0
0
0
0
0
0
0
0
0
0
0
1
1
0
0
0
0
0
0
0
0
0
0
0
0
0
0
0
0
0
0
0
0
1
1
0
0
0
0
0
0
0
0
0
0
0
0
0
0
0
0
0
0
0
0
0
0
0
0
0
0
0
0
0
0
0
0
0
1
1
0
0
0
0
0
0
0
0
0
0
0
0
0
0
0
0
0
0
0
0
1
1
0
0
0
0
0
0
0
0
0
0
0
0
0
0
0
0
0
0
0
0
0
0
0
0
0
0
0
0
0
0
0
0
0
1
1
0
0
0
0
0
0
0
0
0
0
0
0
0
0
0
0
0
0
0
0
1
1
0
0
0
0
0
0
0
0
0
0
0
0
0
0
0
0
0
0
0
0
0
0
0
0
0
0
0
0
0
0
0
0
0
1
1
0
0
0
0
0
0
0
0
0
0
0
0
0
0
0
0
0
0
0
0
1
1
0
0
0
0
0
0
0
0
0
0
0
0
0
0
0
0
0
0
0
0
0
0
0
0
0
0
0
0
0
0
0
0
0
1
1
0
0
0
0
0
0
0
0
0
0
0
0
0
0
0
0
0
0
0
0
1
1
0
0
0
0
0
0
0
0
0
0
0
0
0
0
0
0
0
0
0
0
0
0
0
0
0
0
0
0
0
0
0
0
0
1
1
0
0
0
0
0
0
0
0
0
0
0
0
0
0
0
0
0
0
0
0
1
1
0
0
0
0
0
0
0
0
0
0
0
0
0
0
0
0
0
0
0
0
0
0
0
0
0
0
0
0
0
0
0
0
0
1
1
0
0
0
0
0
0
0
0
0
0
0
0
0
0
0
0
0
0
0
0
1
1
0
0
0
0
0
0
0
0
0
0
0
0
0
0
0
0
0
0
0
0
0
0
0
0
0
0
0
0
0
0
0
0
0
1
1
0
0
0
0
0
0
0
0
0
0
0
0
0
0
0
0
0
0
0
0
1
1
0
0
0
0
0
0
0
0
0
0
0
0
0
0
0
0
0
0
0
0
0
0
0
0
0
0
0
0
0
0
0
0
0
1
1
0
0
0
0
0
0
0
0
0
0
0
0
0
0
0
0
0
0
0
0
1
1
0
0
0
0
0
0
0
0
0
0
0
0
0
0
0
0
0
0
0
0
0
0
0
0
0
0
0
0
0
0
0
0
0
1
1
0
0
0
0
0
0
0
0
0
0
0
0
0
0
0
0
0
0
0
0
1
1
0
0
0
0
0
0
0
0
0
0
0
0
0
0
0
0
0
0
0
0
0
0
0
0
0
0
0
0
0
0
0
0
0
1
1
0
0
0
0
0
0
0
0
0
0
0
0
0
0
0
0
0
0
0
0
1
1
0
0
0
0
0
0
0
0
0
0
0
0
0
0
0
0
0
0
0
0
0
0
0
0
0
0
0
0
0
0
0
0
0
1
1
0
0
0
0
0
0
0
0
0
0
0
0
0
0
0
0
0
0
0
0
1
1
0
0
0
0
0
0
0
0
0
0
0
0
0
0
0
0
0
0
0
0
0
0
0
0
0
0
0
0
0
0
0
0
0
1
1
0
0
0
0
0
0
0
0
0
0
0
0
0
0
0
0
0
0
0
0
1
1
0
0
0
0
0
0
0
0
0
0
0
0
0
0
0
0
0
0
0
0
0
0
0
0
0
0
0
0
0
0
0
0
0
1
1
0
0
0
0
0
0
0
0
0
0
0
0
0
0
0
0
0
0
0
0
1
1
0
0
0
0
0
0
0
0
0
0
0
0
0
0
0
0
0
0
0
0
0
0
0
0
0
0
0
0
0
0
0
0
0
1
1
0
0
0
0
0
0
0
0
0
0
0
0
0
0
0
0
0
0
0
0
1
1
0
0
0
0
0
0
0
0
0
0
0
0
0
0
0
0
0
0
0
0
0
0
0
0
0
0
0
0
0
0
0
0
0
1
1
0
0
0
0
0
0
0
0
0
0
0
0
0
0
0
0
0
0
0
0
1
1
0
0
0
0
0
0
0
0
0
0
0
0
0
0
0
0
0
0
0
0
0
0
0
0
0
0
0
0
0
0
0
0
0
1
1
0
0
0
0
0
0
0
0
0
0
0
0
0
0
0
0
0
0
0
0
0
1
1
0
0
0
0
0
0
0
0
0
0
0
0
0
0
0
0
0
0
0
0
0
0
0
0
0
0
0
0
0
0
0
0
0
0
1
1
0
0
0
0
0
0
0
0
0
0
0
0
0
0
0
0
0
0
0
0
0
0
0
0
0
0
0
0
0
0
0
0
0
0
0
0
0
0
0
0
0
0
0
0
0
0
0
0
0
0
0
0
0
0
0
0
0
1
1
0
0
0
0
0
0
0
0
0
0
0
0
0
0
0
0
0
0
0
0
0
0
0
0
0
0
0
0
0
0
0
0
0
0
0
0
0
0
0
0
0
0
0
0
0
0
0
0
0
0
0
0
0
0
0
0
0
1
1
0
0
0
0
0
0
0
0
0
0
0
0
0
0
0
0
0
0
0
0
0
0
0
0
0
0
0
0
0
0
0
0
0
0
0
0
0
0
0
0
0
0
0
0
0
0
0
0
0
0
0
0
0
0
0
0
0
1
1
0
0
0
0
0
0
0
0
0
0
0
0
0
0
0
0
0
0
0
0
0
0
0
0
0
0
0
0
0
0
0
0
0
0
0
0
0
0
0
0
0
0
0
0
0
0
0
0
0
0
0
0
0
0
0
0
0
1
1
0
0
0
0
0
0
0
0
0
0
0
0
0
0
0
0
0
0
0
0
0
0
0
0
0
0
0
0
0
0
0
0
0
0
0
0
0
0
0
0
0
0
0
0
0
0
0
0
0
0
0
0
0
0
0
0
0
1
1
0
0
0
0
0
0
0
0
0
0
0
0
0
0
0
0
0
0
0
0
0
0
0
0
0
0
0
0
0
0
0
0
0
0
0
0
0
0
0
0
0
0
0
0
0
0
0
0
0
0
0
0
0
0
0
0
0
1
1
0
0
0
0
0
0
0
0
0
0
0
0
0
0
0
0
0
0
0
0
0
0
0
0
0
0
0
0
0
0
0
0
0
0
0
0
0
0
0
0
0
0
0
0
0
0
0
0
0
0
0
0
0
0
0
0
0
1
1
0
0
0
0
0
0
0
0
0
0
0
0
0
0
0
0
0
0
0
0
0
0
0
0
0
0
0
0
0
0
0
0
0
0
0
0
0
0
0
0
0
0
0
0
0
0
0
0
0
0
0
0
0
0
0
0
0
1
1
0
0
0
0
0
0
0
0
0
0
0
0
0
0
0
0
0
0
0
0
0
0
0
0
0
0
0
0
0
0
0
0
0
0
0
0
0
0
0
0
0
0
0
0
0
0
0
0
0
0
0
0
0
0
0
0
0
1
1
0
0
0
0
0
0
0
0
0
0
0
0
0
0
0
0
0
0
0
0
0
0
0
0
0
0
0
0
0
0
0
0
0
0
0
0
0
0
0
0
0
0
0
0
0
0
0
0
0
0
0
0
0
0
0
0
0
1
1
0
0
0
0
0
0
0
0
0
0
0
0
0
0
0
0
0
0
0
0
0
1
1
0
0
0
0
0
0
0
0
0
0
0
0
0
0
0
0
0
0
0
0
0
0
0
0
0
0
0
0
0
0
0
0
0
0
1
1
0
0
0
0
0
0
0
0
0
0
0
0
0
0
0
0
0
0
0
0
1
1
0
0
0
0
0
0
0
0
0
0
0
0
0
0
0
0
0
0
0
0
0
0
0
0
0
0
0
0
0
0
0
0
0
1
1
0
0
0
0
0
0
0
0
0
0
0
0
0
0
0
0
0
0
0
0
1
1
0
0
0
0
0
0
0
0
0
0
0
0
0
0
0
0
0
0
0
0
0
0
0
0
0
0
0
0
0
0
0
0
0
1
1
0
0
0
0
0
0
0
0
0
0
0
0
0
0
0
0
0
0
0
0
1
1
0
0
0
0
0
0
0
0
0
0
0
0
0
0
0
0
0
0
0
0
0
0
0
0
0
0
0
0
0
0
0
0
0
1
1
0
0
0
0
0
0
0
0
0
0
0
0
0
0
0
0
0
0
0
0
1
1
0
0
0
0
0
0
0
0
0
0
0
0
0
0
0
0
0
0
0
0
0
0
0
0
0
0
0
0
0
0
0
0
0
1
1
0
0
0
0
0
0
0
0
0
0
0
0
0
0
0
0
0
0
0
0
1
1
0
0
0
0
0
0
0
0
0
0
0
0
0
0
0
0
0
0
0
0
0
0
0
0
0
0
0
0
0
0
0
0
0
1
1
0
0
0
0
0
0
0
0
0
0
0
0
0
0
0
0
0
0
0
0
1
1
0
0
0
0
0
0
0
0
0
0
0
0
0
0
0
0
0
0
0
0
0
0
0
0
0
0
0
0
0
0
0
0
0
1
1
0
0
0
0
0
0
0
0
0
0
0
0
0
0
0
0
0
0
0
0
1
1
0
0
0
0
0
0
0
0
0
0
0
0
0
0
0
0
0
0
0
0
0
0
0
0
0
0
0
0
0
0
0
0
0
1
1
0
0
0
0
0
0
0
0
0
0
0
0
0
0
0
0
0
0
0
0
1
1
0
0
0
0
0
0
0
0
0
0
0
0
0
0
0
0
0
0
0
0
0
0
0
0
0
0
0
0
0
0
0
0
0
1
1
0
0
0
0
0
0
0
0
0
0
0
0
0
0
0
0
0
0
0
0
1
1
0
0
0
0
0
0
0
0
0
0
0
0
0
0
0
0
0
0
0
0
0
0
0
0
0
0
0
0
0
0
0
0
0
1
1
0
0
0
0
0
0
0
0
0
0
0
0
0
0
0
0
0
0
0
0
1
1
0
0
0
0
0
0
0
0
0
0
0
0
0
0
0
0
0
0
0
0
0
0
0
0
0
0
0
0
0
0
0
0
0
1
1
0
0
0
0
0
0
0
0
0
0
0
0
0
0
0
0
0
0
0
0
1
1
0
0
0
0
0
0
0
0
0
0
0
0
0
0
0
0
0
0
0
0
0
0
0
0
0
0
0
0
0
0
0
0
0
1
1
0
0
0
0
0
0
0
0
0
0
0
0
0
0
0
0
0
0
0
0
1
1
0
0
0
0
0
0
0
0
0
0
0
0
0
0
0
0
0
0
0
0
0
0
0
0
0
0
0
0
0
0
0
0
0
1
1
0
0
0
0
0
0
0
0
0
0
0
0
0
0
0
0
0
0
0
0
1
1
0
0
0
0
0
0
0
0
0
0
0
0
0
0
0
0
0
0
0
0
0
0
0
0
0
0
0
0
0
0
0
0
0
1
1
0
0
0
0
0
0
0
0
0
0
0
0
0
0
0
0
0
0
0
0
1
1
0
0
0
0
0
0
0
0
0
0
0
0
0
0
0
0
0
0
0
0
0
0
0
0
0
0
0
0
0
0
0
0
0
1
1
0
0
0
0
0
0
0
0
0
0
0
0
0
0
0
0
0
0
0
0
1
1
0
0
0
0
0
0
0
0
0
0
0
0
0
0
0
0
0
0
0
0
0
0
0
0
0
0
0
0
0
0
0
0
0
1
1
0
0
0
0
0
0
0
0
0
0
0
0
0
0
0
0
0
0
0
0
1
1
0
0
0
0
0
0
0
0
0
0
0
0
0
0
0
0
0
0
0
0
0
0
0
0
0
0
0
0
0
0
0
0
0
1
1
0
0
0
0
0
0
0
0
0
0
0
0
0
0
0
0
0
0
0
0
1
1
0
0
0
0
0
0
0
0
0
0
0
0
0
0
0
0
0
0
0
0
0
0
0
0
0
0
0
0
0
0
0
0
0
1
1
0
0
0
0
0
0
0
0
0
0
0
0
0
0
0
0
0
0
0
0
1
1
0
0
0
0
0
0
0
0
0
0
0
0
0
0
0
0
0
0
0
0
0
0
0
0
0
0
0
0
0
0
0
0
0
1
1
0
0
0
0
0
0
0
0
0
0
0
0
0
0
0
0
0
0
0
0
1
1
0
0
0
0
0
0
0
0
0
0
0
0
0
0
0
0
0
0
0
0
0
0
0
0
0
0
0
0
0
0
0
0
0
1
1
0
0
0
0
0
0
0
0
0
0
0
0
0
0
0
0
0
0
0
0
1
1
0
0
0
0
0
0
0
0
0
0
0
0
0
0
0
0
0
0
0
0
0
0
0
0
0
0
0
0
0
0
0
0
0
1
1
0
0
0
0
0
0
0
0
0
0
0
0
0
0
0
0
0
0
0
0
1
1
0
0
0
0
0
0
0
0
0
0
0
0
0
0
0
0
0
0
0
0
0
0
0
0
0
0
0
0
0
0
0
0
0
1
1
1
1
1
1
1
1
1
1
1
1
1
1
1
1
1
1
1
1
1
1
1
1
1
1
1
1
1
1
1
1
1
1
1
1
1
1
1
1
1
1
1
1
1
1
1
1
1
1
1
1
1
1
1
1
1
1
				</DataArray>
				<DataArray type="Float64" Name="h" NumberOfComponents="1" Format="ascii">
1.2105860012
1.2112552135
1.2111924316
1.2110681812
1.2108855633
1.2106490969
1.2103646457
1.2100393489
1.2096813405
1.2092995899
1.2089036871
1.2085035138
1.2081090401
1.2077300273
1.2073757559
1.2070548593
1.2067750431
1.2065429529
1.2063640876
1.2062425836
1.2061812326
1.2061812326
1.1931679649
1.1914939217
1.1914873364
1.1914758025
1.1914621657
1.1914506484
1.1914467345
1.1914569755
1.1914888596
1.1915505864
1.1916508359
1.1917985711
1.1920028436
1.1922725927
1.1926161530
1.1930407743
1.1935517892
1.1941521218
1.1948425271
1.1956211078
1.1964827786
1.1974189397
1.1984173866
1.1994622200
1.2005339277
1.2016097875
1.2026644659
1.2036708023
1.2046008476
1.2054271228
1.2061238976
1.2066684743
1.2070425366
1.2072331934
1.2072331934
1.2112552135
1.2118480138
1.2117923325
1.2116820877
1.2115200391
1.2113102092
1.2110578235
1.2107692617
1.2104517936
1.2101134365
1.2097627610
1.2094085818
1.2090597704
1.2087249809
1.2084124008
1.2081296065
1.2078833083
1.2076792506
1.2075221551
1.2074155360
1.2073617503
1.2061812326
1.1914939217
1.1898461454
1.1898464937
1.1898488032
1.1898558940
1.1898719555
1.1899024336
1.1899538407
1.1900336293
1.1901499716
1.1903115492
1.1905273768
1.1908065744
1.1911580774
1.1915900719
1.1921094811
1.1927213563
1.1934280891
1.1942298246
1.1951238339
1.1961039828
1.1971603930
1.1982793728
1.1994433721
1.2006310856
1.2018179245
1.2029766872
1.2040783989
1.2050934261
1.2059927969
1.2067495140
1.2073398773
1.2077448376
1.2079510289
1.2072331934
1.2108198125
1.2114024678
1.2113484914
1.2112415820
1.2110843636
1.2108806661
1.2106354755
1.2103548993
1.2100459175
1.2097162551
1.2093742044
1.2090283291
1.2086872884
1.2083595695
1.2080532419
1.2077758096
1.2075339504
1.2073334062
1.2071789157
1.2070740169
1.2070210884
1.2058382619
1.1916324935
1.1899870991
1.1899873586
1.1899894790
1.1899962660
1.1900118855
1.1900417515
1.1900923366
1.1901710460
1.1902860019
1.1904458392
1.1906595298
1.1909361499
1.1912845873
1.1917129841
1.1922282581
1.1928353936
1.1935368802
1.1943329199
1.1952208525
1.1961946355
1.1972444994
1.1983568691
1.1995143249
1.2006956718
1.2018764389
1.2030295379
1.2041260961
1.2051365667
1.2060320477
1.2067855967
1.2073735533
1.2077768961
1.2079822769
1.2072601243
1.2099653459
1.2105273433
1.2104766738
1.2103762334
1.2102283848
1.2100365853
1.2098053575
1.2095402821
1.2092477771
1.2089350004
1.2086097033
1.2082799612
1.2079540189
1.2076400383
1.2073458576
1.2070788397
1.2068455989
1.2066518734
1.2065024361
1.2064008732
1.2063496069
1.2051629810
1.1918966258
1.1902565263
1.1902567601
1.1902588007
1.1902654124
1.1902806980
1.1903099867
1.1903596486
1.1904369719
1.1905499560
1.1907071199
1.1909173275
1.1911895496
1.1915325665
1.1919544306
1.1924620334
1.1930602546
1.1937517679
1.1945368921
1.1954131109
1.1963745698
1.1974117210
1.1985112325
1.1996559531
1.2008249268
1.2019939194
1.2031360612
1.2042226723
1.2052243659
1.2061123684
1.2068598358
1.2074431785
1.2078434237
1.2080472532
1.2073166019
1.2087150827
1.2092460745
1.2092001348
1.2091089486
1.2089745077
1.2087997405
1.2085885112
1.2083456501
1.2080767737
1.2077882282
1.2074869887
1.2071804280
1.2068761917
1.2065819695
1.2063052626
1.2060532271
1.2058323832
1.2056484632
1.2055062901
1.2054095211
1.2053606435
1.2041696598
1.1922827446
1.1906513293
1.1906515674
1.1906535732
1.1906600479
1.1906749968
1.1907036189
1.1907521280
1.1908276346
1.1909379526
1.1910914223
1.1912967396
1.1915627114
1.1918979617
1.1923104299
1.1928068956
1.1933922355
1.1940693182
1.1948386421
1.1956979109
1.1966415500
1.1976603402
1.1987413088
1.1998676989
1.2010189053
1.2021710350
1.2032975269
1.2043699685
1.2053591912
1.2062365919
1.2069754550
1.2075522808
1.2079481564
1.2081498003
1.2074067362
1.2071022345
1.2075922245
1.2075521970
1.2074725812
1.2073549110
1.2072014610
1.2070152794
1.2068002651
1.2065610355
1.2063029219
1.2060319247
1.2057545295
1.2054776222
1.2052082898
1.2049536006
1.2047204427
1.2045152139
1.2043436380
1.2042106040
1.2041198631
1.2040739890
1.2028793444
1.1927854078
1.1911667395
1.1911669680
1.1911689004
1.1911751588
1.1911896252
1.1912173336
1.1912642987
1.1913374048
1.1914442284
1.1915928789
1.1917918305
1.1920496759
1.1923748455
1.1927751727
1.1932572069
1.1938259963
1.1944845995
1.1952337335
1.1960713997
1.1969923929
1.1979879213
1.1990454755
1.2001487985
1.2012777285
1.2024087954
1.2035158139
1.2045706904
1.2055445083
1.2064088558
1.2071371559
1.2077060007
1.2080965351
1.2082955116
1.2075365023
1.2051681911
1.2056077788
1.2055745695
1.2055083012
1.2054099881
1.2052811614
1.2051239390
1.2049411537
1.2047362752
1.2045134628
1.2042775850
1.2040340910
1.2037889729
1.2035486043
1.2033195369
1.2031083374
1.2029212563
1.2027640096
1.2026415703
1.2025578100
1.2025154128
1.2013192368
1.1933975631
1.1917965296
1.1917966798
1.1917983958
1.1918042133
1.1918178772
1.1918442342
1.1918890711
1.1919590117
1.1920613568
1.1922039452
1.1923949870
1.1926428287
1.1929556815
1.1933411834
1.1938058302
1.1943548177
1.1949914036
1.1957165865
1.1965287393
1.1974231089
1.1983914184
1.1994217297
1.2004983094
1.2016015642
1.2027084832
1.2037932953
1.2048282462
1.2057846771
1.2066343606
1.2073508437
1.2079107911
1.2082953881
1.2084914068
1.2077134002
1.2029600042
1.2033406752
1.2033149046
1.2032632045
1.2031860328
1.2030841229
1.2029585910
1.2028111170
1.2026439222
1.2024598837
1.2022626227
1.2020564383
1.2018463230
1.2016378463
1.2014369740
1.2012499077
1.2010827335
1.2009411668
1.2008302911
1.2007541328
1.2007155187
1.1995213714
1.1941115234
1.1925339281
1.1925338595
1.1925350791
1.1925400417
1.1925523572
1.1925766782
1.1926185530
1.1926843280
1.1927810032
1.1929161253
1.1930976123
1.1933335414
1.1936318755
1.1940000438
1.1944446908
1.1949710650
1.1955826684
1.1962808423
1.1970644042
1.1979291280
1.1988673269
1.1998677070
1.2009151176
1.2019905409
1.2030714863
1.2041325905
1.2051464258
1.2060845629
1.2069189211
1.2076231294
1.2081738827
1.2085523697
1.2087453561
1.2079458653
1.2005283305
1.2008427263
1.2008247467
1.2007883121
1.2007333105
1.2006596552
1.2005674277
1.2004571107
1.2003296203
1.2001864826
1.2000299947
1.1998632240
1.1996900828
1.1995152659
1.1993440987
1.1991823854
1.1990360429
1.1989108074
1.1988119154
1.1987436008
1.1987088817
1.1975216036
1.1949187289
1.1933713309
1.1933708153
1.1933710951
1.1933745677
1.1933847274
1.1934060499
1.1934438549
1.1935042125
1.1935938159
1.1937199083
1.1938901093
1.1941121552
1.1943938182
1.1947425350
1.1951649194
1.1956663567
1.1962506429
1.1969195264
1.1976723355
1.1985054362
1.1994117895
1.2003808049
1.2013979340
1.2024447429
1.2034992374
1.2045364518
1.2055292328
1.2064493175
1.2072687017
1.2079610251
1.2085029464
1.2088756020
1.2090657114
1.2082428811
1.1979253656
1.1981675292
1.1981574618
1.1981365391
1.1981040840
1.1980591930
1.1980009114
1.1979285140
1.1978415902
1.1977402802
1.1976255097
1.1974990578
1.1973636969
1.1972231921
1.1970821875
1.1969460718
1.1968206050
1.1967115882
1.1966244825
1.1965638149
1.1965328741
1.1953582894
1.1958100671
1.1943005520
1.1942992542
1.1942979547
1.1942990387
1.1943059357
1.1943229886
1.1943553279
1.1944087591
1.1944896902
1.1946050300
1.1947620551
1.1949682990
1.1952314363
1.1955588346
1.1959570884
1.1964317978
1.1969871090
1.1976252412
1.1983460949
1.1991466825
1.2000206512
1.2009581553
1.2019452403
1.2029640308
1.2039929854
1.2050074632
1.2059805119
1.2068839386
1.2076897143
1.2083713908
1.2089054999
1.2092730527
1.2094606696
1.2086133298
1.1952025396
1.1953680995
1.1953658842
1.1953603663
1.1953503211
1.1953340500
1.1953095822
1.1952749981
1.1952285626
1.1951690172
1.1950958884
1.1950096260
1.1949118144
1.1948052438
1.1946938458
1.1945825894
1.1944771121
1.1943833580
1.1943071311
1.1942533930
1.1942258356
1.1930703455
1.1967768303
1.1953137110
1.1953111563
1.1953073821
1.1953048479
1.1953070104
1.1953181646
1.1953433171
1.1953880172
1.1954583745
1.1955610321
1.1957030006
1.1958917001
1.1961346318
1.1964390638
1.1968116938
1.1972583966
1.1977837292
1.1983904431
1.1990790669
1.1998473001
1.2006895009
1.2015965780
1.2025551401
1.2035478170
1.2045534398
1.2055475977
1.2065034205
1.2073926617
1.2081871396
1.2088601948
1.2093881222
1.2097517171
1.2099374387
1.2090651473
1.1924090233
1.1924952765
1.1925007296
1.1925102683
1.1925221455
1.1925338990
1.1925425742
1.1925450830
1.1925383792
1.1925198027
1.1924874583
1.1924404285
1.1923790615
1.1923051263
1.1922218131
1.1921336775
1.1920462951
1.1919658785
1.1918987646
1.1918505811
1.1918256500
1.1906957853
1.1978104948
1.1964029595
1.1963984864
1.1963910139
1.1963832249
1.1963787548
1.1963819579
1.1963977715
1.1964316203
1.1964893578
1.1965773790
1.1967025567
1.1968720349
1.1970931800
1.1973732672
1.1977191704
1.1981371017
1.1986320932
1.1992074896
1.1998644945
1.2006015233
1.2014136494
1.2022925210
1.2032252556
1.2041949041
1.2051805707
1.2061579438
1.2071000946
1.2079785713
1.2087648884
1.2094320336
1.2099559383
1.2103170809
1.2105016878
1.2096047559
1.1895906586
1.1895965704
1.1896094424
1.1896335615
1.1896666860
1.1897056248
1.1897464749
1.1897850069
1.1898168767
1.1898380147
1.1898450744
1.1898357200
1.1898089991
1.1897655965
1.1897079200
1.1896401195
1.1895677962
1.1894976185
1.1894367501
1.1893918618
1.1893682937
1.1882702635
1.1989029547
1.1975606449
1.1975533179
1.1975404552
1.1975252170
1.1975116624
1.1975043995
1.1975084151
1.1975290873
1.1975721045
1.1976436059
1.1977502005
1.1978988347
1.1980968049
1.1983514663
1.1986699356
1.1990588302
1.1995237256
1.2000686145
1.2006954135
1.2014032701
1.2021879690
1.2030418354
1.2039524347
1.2049031359
1.2058731857
1.2068382263
1.2077711064
1.2086429985
1.2094249474
1.2100894332
1.2106118877
1.2109723639
1.2111567799
1.2102362830
1.1867888518
1.1867149632
1.1867349902
1.1867731873
1.1868268443
1.1868920742
1.1869640570
1.1870374427
1.1871065917
1.1871660022
1.1872108237
1.1872372217
1.1872428425
1.1872271851
1.1871917988
1.1871404183
1.1870787738
1.1870142486
1.1869552728
1.1869101628
1.1868859405
1.1858252295
1.2000472997
1.1987800489
1.1987685100
1.1987478892
1.1987222638
1.1986965007
1.1986757410
1.1986652089
1.1986702213
1.1986962834
1.1987492718
1.1988355224
1.1989618196
1.1991354382
1.1993638744
1.1996545577
1.2000145867
1.2004501441
1.2009659204
1.2015645763
1.2022459974
1.2030067352
1.2038394978
1.2047323960
1.2056689596
1.2066284318
1.2075862416
1.2085148403
1.2093848450
1.2101666569
1.2108320887
1.2113559343
1.2117177106
1.2119029515
1.2109607282
1.1840401550
1.1838884125
1.1839153628
1.1839672003
1.1840407697
1.1841315158
1.1842337254
1.1843409364
1.1844461980
1.1845425288
1.1846234852
1.1846836052
1.1847189723
1.1847277265
1.1847104130
1.1846702865
1.1846132979
1.1845478720
1.1844843367
1.1844336016
1.1844055124
1.1833865689
1.2012377508
1.2000552736
1.2000374854
1.2000057211
1.1999657354
1.1999237854
1.1998858846
1.1998576282
1.1998442887
1.1998511137
1.1998836556
1.1999479541
1.2000506308
1.2001989741
1.2004006797
1.2006635652
1.2009952830
1.2014026853
1.2018912068
1.2024642735
1.2031224926
1.2038632499
1.2046794102
1.2055594920
1.2064871696
1.2074415082
1.2083975484
1.2093271620
1.2102002308
1.2109863398
1.2116564788
1.2121846684
1.2125497843
1.2127369032
1.2117755268
1.1813762728
1.1811498215
1.1811835321
1.1812487104
1.1813417761
1.1814575281
1.1815893761
1.1817297406
1.1818703250
1.1820025887
1.1821183597
1.1822103526
1.1822728367
1.1823023092
1.1822980391
1.1822626153
1.1822022230
1.1821266849
1.1820490817
1.1819843769
1.1819472095
1.1809732313
1.2024700996
1.2013816190
1.2013543595
1.2013064151
1.2012465269
1.2011832098
1.2011237612
1.2010742273
1.2010397530
1.2010251616
1.2010355416
1.2010765528
1.2011546196
1.2012770659
1.2014518440
1.2016872321
1.2019915090
1.2023722594
1.2028357047
1.2033860493
1.2040246101
1.2047494846
1.2055538266
1.2064262757
1.2073504813
1.2083052282
1.2092650088
1.2102009434
1.2110820047
1.2118768012
1.2125553550
1.2130907904
1.2134612458
1.2136512755
1.2126740022
1.1788239532
1.1785268960
1.1785672975
1.1786457035
1.1787581282
1.1788987454
1.1790600990
1.1792334792
1.1794091916
1.1795770283
1.1797269029
1.1798494316
1.1799367024
1.1799831243
1.1799862144
1.1799474793
1.1798731424
1.1797746891
1.1796690042
1.1795772746
1.1795223152
1.1785951512
1.2037427942
1.2027566561
1.2027145255
1.2026426081
1.2025548881
1.2024633909
1.2023771121
1.2023024628
1.2022441625
1.2022062812
1.2021931776
1.2022099666
1.2022628085
1.2023590695
1.2025070143
1.2027154563
1.2029933792
1.2033491667
1.2037898677
1.2043204751
1.2049429901
1.2056561394
1.2064533097
1.2073231490
1.2082491496
1.2092096410
1.2101784149
1.2111256868
1.2120193708
1.2128269567
1.2135173742
1.2140627459
1.2144403918
1.2146342891
1.2136449764
1.1764051863
1.1760423442
1.1760894769
1.1761812179
1.1763131980
1.1764789901
1.1766702883
1.1768772400
1.1770886960
1.1772926543
1.1774768852
1.1776295504
1.1777400536
1.1778000567
1.1778045420
1.1777531166
1.1776513949
1.1775124219
1.1773579349
1.1772183675
1.1771304349
1.1762505895
1.2050580346
1.2041813141
1.2041147303
1.2040063545
1.2038792574
1.2037506224
1.2036313514
1.2035277272
1.2034433658
1.2033809763
1.2033437474
1.2033359962
1.2033635128
1.2034337088
1.2035552244
1.2037374948
1.2039902977
1.2043228853
1.2047431758
1.2052569633
1.2058669287
1.2065722692
1.2073665706
1.2082384166
1.2091709949
1.2101420431
1.2111245126
1.2120875789
1.2129979682
1.2138219375
1.2145272247
1.2150848686
1.2154713087
1.2156699040
1.2146728887
1.1741376850
1.1737143813
1.1737684005
1.1738738147
1.1740259011
1.1742176681
1.1744399917
1.1746818812
1.1749306905
1.1751725031
1.1753927007
1.1755765717
1.1757102009
1.1757815923
1.1757819894
1.1757076451
1.1755620620
1.1753587968
1.1751248679
1.1749036247
1.1747549930
1.1739217084
1.2064245754
1.2056626935
1.2055536393
1.2053881966
1.2052047579
1.2050273953
1.2048683518
1.2047324453
1.2046208604
1.2045339298
1.2044730189
1.2044413052
1.2044440852
1.2044888374
1.2045846657
1.2047417384
1.2049707339
1.2052818526
1.2056839254
1.2061835590
1.2067842069
1.2074851509
1.2082803124
1.2091581074
1.2101013111
1.2110869461
1.2120870079
1.2130695227
1.2139999332
1.2148431801
1.2155657404
1.2161375143
1.2165340204
1.2167379742
1.2157379156
1.1720351905
1.1715570515
1.1716182170
1.1717378524
1.1719109251
1.1721299362
1.1723850054
1.1726640473
1.1729529226
1.1732357289
1.1734952519
1.1737134737
1.1738724557
1.1739553967
1.1739480956
1.1738410871
1.1736327957
1.1733342143
1.1729759096
1.1726170549
1.1723544937
1.1715659035
1.2078636825
1.2072200874
1.2070327925
1.2067754950
1.2065109127
1.2062704607
1.2060651207
1.2058952834
1.2057573734
1.2056478033
1.2055652515
1.2055113674
1.2054908685
1.2055113799
1.2055826156
1.2057156321
1.2059221414
1.2062133847
1.2065991543
1.2070868605
1.2076809247
1.2083803134
1.2091792621
1.2100660812
1.2110230157
1.2120262808
1.2130468242
1.2140514518
1.2150042626
1.2158688335
1.2166103455
1.2171975343
1.2176049820
1.2178147515
1.2168164407
1.1701077376
1.1695805331
1.1696491876
1.1697837601
1.1699789675
1.1702268933
1.1705170057
1.1708362305
1.1711690218
1.1714975431
1.1718018408
1.1720603155
1.1722503357
1.1723490513
1.1723346606
1.1721885050
1.1718987320
1.1714668467
1.1709196811
1.1703296396
1.1698456063
1.1690989182
1.2094208789
1.2088968374
1.2085565526
1.2081479784
1.2077669872
1.2074474069
1.2071916821
1.2069899956
1.2068302990
1.2067030036
1.2066031237
1.2065304701
1.2064892307
1.2064873894
1.2065355175
1.2066457806
1.2068310985
1.2071038704
1.2074749135
1.2079524859
1.2085416511
1.2092416339
1.2100465547
1.2109445194
1.2119172255
1.2129400337
1.2139828069
1.2150110959
1.2159876352
1.2168746296
1.2176359646
1.2182392180
1.2186580433
1.2188738597
1.2178820037
1.1683621478
1.1677916748
1.1678682067
1.1680185197
1.1682371649
1.1685159299
1.1688437941
1.1692068789
1.1695884431
1.1699688678
1.1703256282
1.1706335835
1.1708650750
1.1709901707
1.1709771991
1.1707938446
1.1704099054
1.1698040884
1.1689800505
1.1680020062
1.1670684193
1.1663600970
1.2111911389
1.2107856747
1.2101287162
1.2094677588
1.2089237864
1.2085117508
1.2082087217
1.2079845864
1.2078136277
1.2076779281
1.2075680712
1.2074820414
1.2074238525
1.2074022968
1.2074292055
1.2075181695
1.2076835436
1.2079390260
1.2082965380
1.2087652647
1.2093506593
1.2100523361
1.2108643413
1.2117744764
1.2127638352
1.2138068988
1.2148724340
1.2159247466
1.2169252294
1.2178347468
1.2186159264
1.2192352253
1.2196654024
1.2198872583
1.2189062589
1.1668024656
1.1661944543
1.1662792272
1.1664460333
1.1666893529
1.1670008320
1.1673691771
1.1677799895
1.1682156768
1.1686552867
1.1690743264
1.1694445955
1.1697337920
1.1699047701
1.1699145984
1.1697130352
1.1692411470
1.1684325703
1.1672245212
1.1655991121
1.1637099833
1.1630359422
1.2133736868
1.2130837485
1.2117361976
1.2106557904
1.2098987600
1.2093967573
1.2090663167
1.2088414888
1.2086787245
1.2085498613
1.2084410785
1.2083492851
1.2082792245
1.2082413126
1.2082492555
1.2083184960
1.2084651037
1.2087042377
1.2090489941
1.2095097000
1.2100917232
1.2107953077
1.2116144827
1.2125366976
1.2135424085
1.2146052152
1.2156928187
1.2167683275
1.2177918548
1.2187229963
1.2195231943
1.2201578538
1.2205988961
1.2208265451
1.2198602875
1.1654301000
1.1647901548
1.1648834028
1.1650672152
1.1653361034
1.1656817499
1.1660928579
1.1665548914
1.1670499501
1.1675565133
1.1680489704
1.1684973105
1.1688661706
1.1691130146
1.1691851284
1.1690136542
1.1685028010
1.1675121785
1.1658309496
1.1631560816
1.1591497058
1.1585057652
1.2163938012
1.2162147142
1.2132917191
1.2115382485
1.2105487077
1.2100055114
1.2097037923
1.2095226069
1.2093975204
1.2092971814
1.2092043381
1.2091164576
1.2090406730
1.2089903033
1.2089817840
1.2090329392
1.2091618643
1.2093853483
1.2097177431
1.2101704164
1.2107489618
1.2114539454
1.2122794725
1.2132126317
1.2142332651
1.2153141333
1.2164219363
1.2175186724
1.2185632781
1.2195141884
1.2203317670
1.2209804642
1.2214314435
1.2216644091
1.2207160878
1.1642443158
1.1635778949
1.1636796379
1.1638805783
1.1641753685
1.1645559081
1.1650111753
1.1655269006
1.1660854681
1.1666656471
1.1672420444
1.1677848061
1.1682586298
1.1686204455
1.1688153052
1.1687665807
1.1683533629
1.1673582552
1.1653388048
1.1613013089
1.1528758363
1.1522626791
1.2211733256
1.2210994457
1.2144519478
1.2117288409
1.2106295527
1.2102055545
1.2100524409
1.2099931789
1.2099514303
1.2099036404
1.2098437694
1.2097705360
1.2096955502
1.2096367262
1.2096142539
1.2096489153
1.2097611396
1.2099694942
1.2102897198
1.2107336136
1.2113078444
1.2120130549
1.2128433112
1.2137853580
1.2148184692
1.2159146503
1.2170397068
1.2181546534
1.2192173893
1.2201853329
1.2210179072
1.2216787313
1.2221383118
1.2223759035
1.2214479054
1.1632429928
1.1625553998
1.1626653965
1.1628830567
1.1632032588
1.1636182691
1.1641175726
1.1646875202
1.1653113199
1.1659688681
1.1666363322
1.1672863254
1.1678877965
1.1684054453
1.1687999261
1.1690279651
1.1690439845
1.1688106757
1.1683358130
1.1677942955
1.1680168684
1.1756648920
1.1825100781
1.1758078724
1.1944396772
1.2054912577
1.2077414665
1.2087374631
1.2093242084
1.2097357383
1.2100313092
1.2102270449
1.2103329816
1.2103659096
1.2103519426
1.2103027262
1.2102341326
1.2101702614
1.2101360119
1.2101555822
1.2102519334
1.2104454599
1.2107532954
1.2111877232
1.2117562789
1.2124599082
1.2132925539
1.2142406257
1.2152828998
1.2163907318
1.2175291706
1.2186584061
1.2197354742
1.2207169517
1.2215614867
1.2222320148
1.2226985040
1.2229398425
1.2220336928
1.1624228122
1.1617192127
1.1618369117
1.1620702356
1.1624143369
1.1628619298
1.1634031391
1.1640251368
1.1647122616
1.1654459767
1.1662046221
1.1669640830
1.1676984535
1.1683806940
1.1689853667
1.1694928960
1.1698975554
1.1702269001
1.1705830311
1.1712361409
1.1728936866
1.1778839146
1.1829380303
1.1761882209
1.1900310004
1.1993414222
1.2038057942
1.2064387467
1.2080882618
1.2091645440
1.2098718514
1.2103213101
1.2105812788
1.2107015548
1.2107337662
1.2107107035
1.2106509767
1.2105838878
1.2105392832
1.2105448275
1.2106259655
1.2108047736
1.2110993428
1.2115235471
1.2120850484
1.2127849660
1.2136171598
1.2145677805
1.2156152089
1.2167302898
1.2178774821
1.2190163407
1.2201032407
1.2210941194
1.2219470397
1.2226244216
1.2230958285
1.2233398748
1.2224562640
1.1617798667
1.1610653256
1.1611898411
1.1614370671
1.1618024268
1.1622790815
1.1628578017
1.1635265900
1.1642709546
1.1650739550
1.1659160819
1.1667762962
1.1676331787
1.1684661856
1.1692594862
1.1700073398
1.1707223538
1.1714523770
1.1723082564
1.1735106237
1.1754801580
1.1789662836
1.1825056387
1.1827698268
1.1906646501
1.1973863037
1.2018973448
1.2050330909
1.2072014001
1.2086902791
1.2096931414
1.2103420276
1.2107300330
1.2109269424
1.2109980734
1.2109955884
1.2109440377
1.2108738657
1.2108194850
1.2108116220
1.2108776744
1.2110415352
1.2113228402
1.2117359571
1.2122888136
1.2129826129
1.2138111512
1.2147603974
1.2158084596
1.2169258318
1.2180765750
1.2192198220
1.2203115133
1.2213071702
1.2221644799
1.2228455314
1.2233196302
1.2235652183
1.2227041000
1.1613106112
1.1605901346
1.1607202612
1.1609789459
1.1613618275
1.1618624304
1.1624720496
1.1631793478
1.1639707924
1.1648307425
1.1657413748
1.1666839612
1.1676402570
1.1685939342
1.1695347629
1.1704639537
1.1714012549
1.1723983040
1.1735557765
1.1750424310
1.1771097108
1.1800235339
1.1831990440
1.1857645470
1.1913439008
1.1966910312
1.2009488632
1.2042102226
1.2066184184
1.2083424254
1.2095342007
1.2103196930
1.2107989818
1.2110517843
1.2111507602
1.2111606618
1.2111137713
1.2110390235
1.2109740873
1.2109524000
1.2110037873
1.2111535997
1.2114220505
1.2118235506
1.2123662553
1.2130514713
1.2138729919
1.2148167052
1.2158605859
1.2169749564
1.2181236884
1.2192657237
1.2203568116
1.2213522980
1.2222097180
1.2228910275
1.2233654309
1.2236113053
1.2227720415
1.1610131886
1.1602918356
1.1604260241
1.1606929905
1.1610884823
1.1616062304
1.1622378889
1.1629726914
1.1637975731
1.1646975881
1.1656558703
1.1666549989
1.1676784795
1.1687121858
1.1697486192
1.1707920110
1.1718643911
1.1730164683
1.1743384280
1.1759652873
1.1780664565
1.1807694340
1.1838621685
1.1871383183
1.1917851276
1.1964448625
1.2004825997
1.2037509454
1.2062606250
1.2081049637
1.2094016876
1.2102661306
1.2107987097
1.2110833568
1.2111955002
1.2112068813
1.2111579254
1.2110756728
1.2110002275
1.2109666103
1.2110058779
1.2111435569
1.2113997937
1.2117892864
1.2123204166
1.2129946163
1.2138057379
1.2147396929
1.2157744696
1.2168804051
1.2180214007
1.2191564484
1.2202413599
1.2212315570
1.2220846566
1.2227626877
1.2232349173
1.2234797700
1.2226613228
1.1608905041
1.1601731479
1.1603099003
1.1605820552
1.1609853506
1.1615135153
1.1621582060
1.1629087034
1.1637520222
1.1646733245
1.1656558991
1.1666825728
1.1677372151
1.1688061625
1.1698825228
1.1709712034
1.1720945827
1.1733024005
1.1746799036
1.1763479795
1.1784463084
1.1810695526
1.1841377102
1.1876018087
1.1919183912
1.1963018866
1.2002290273
1.2034847943
1.2060278422
1.2079179429
1.2092561422
1.2101518092
1.2107047962
1.2110006326
1.2111155751
1.2111250232
1.2110733350
1.2109855850
1.2109031547
1.2108615406
1.2108914109
1.2110184399