<VTKFile type="UnstructuredGrid" version="0.1">
	<UnstructuredGrid>
		<Piece NumberOfPoints="13548" NumberOfCells="3387">
			<CellData>
				<DataArray type="Int32" Name="ghost" NumberOfComponents="1" Format="ascii">
1
1
1
1
1
1
1
1
1
1
1
1
1
1
1
1
1
1
1
1
1
1
1
1
1
1
1
1
1
1
1
1
1
1
1
1
1
1
1
1
1
1
1
1
1
1
1
1
1
1
1
1
1
1
1
1
1
1
0
0
0
0
0
0
0
0
0
0
0
0
0
0
0
0
0
0
0
0
1
1
0
0
0
0
0
0
0
0
0
0
0
0
0
0
0
0
0
0
0
0
0
0
0
0
0
0
0
0
0
0
0
0
0
1
1
0
0
0
0
0
0
0
0
0
0
0
0
0
0
0
0
0
0
0
0
1
1
0
0
0
0
0
0
0
0
0
0
0
0
0
0
0
0
0
0
0
0
0
0
0
0
0
0
0
0
0
0
0
0
0
1
1
0
0
0
0
0
0
0
0
0
0
0
0
0
0
0
0
0
0
0
0
1
1
0
0
0
0
0
0
0
0
0
0
0
0
0
0
0
0
0
0
0
0
0
0
0
0
0
0
0
0
0
0
0
0
0
1
1
0
0
0
0
0
0
0
0
0
0
0
0
0
0
0
0
0
0
0
0
1
1
0
0
0
0
0
0
0
0
0
0
0
0
0
0
0
0
0
0
0
0
0
0
0
0
0
0
0
0
0
0
0
0
0
1
1
0
0
0
0
0
0
0
0
0
0
0
0
0
0
0
0
0
0
0
0
1
1
0
0
0
0
0
0
0
0
0
0
0
0
0
0
0
0
0
0
0
0
0
0
0
0
0
0
0
0
0
0
0
0
0
1
1
0
0
0
0
0
0
0
0
0
0
0
0
0
0
0
0
0
0
0
0
1
1
0
0
0
0
0
0
0
0
0
0
0
0
0
0
0
0
0
0
0
0
0
0
0
0
0
0
0
0
0
0
0
0
0
1
1
0
0
0
0
0
0
0
0
0
0
0
0
0
0
0
0
0
0
0
0
1
1
0
0
0
0
0
0
0
0
0
0
0
0
0
0
0
0
0
0
0
0
0
0
0
0
0
0
0
0
0
0
0
0
0
1
1
0
0
0
0
0
0
0
0
0
0
0
0
0
0
0
0
0
0
0
0
1
1
0
0
0
0
0
0
0
0
0
0
0
0
0
0
0
0
0
0
0
0
0
0
0
0
0
0
0
0
0
0
0
0
0
1
1
0
0
0
0
0
0
0
0
0
0
0
0
0
0
0
0
0
0
0
0
1
1
0
0
0
0
0
0
0
0
0
0
0
0
0
0
0
0
0
0
0
0
0
0
0
0
0
0
0
0
0
0
0
0
0
1
1
0
0
0
0
0
0
0
0
0
0
0
0
0
0
0
0
0
0
0
0
1
1
0
0
0
0
0
0
0
0
0
0
0
0
0
0
0
0
0
0
0
0
0
0
0
0
0
0
0
0
0
0
0
0
0
1
1
0
0
0
0
0
0
0
0
0
0
0
0
0
0
0
0
0
0
0
0
1
1
0
0
0
0
0
0
0
0
0
0
0
0
0
0
0
0
0
0
0
0
0
0
0
0
0
0
0
0
0
0
0
0
0
1
1
0
0
0
0
0
0
0
0
0
0
0
0
0
0
0
0
0
0
0
0
1
1
0
0
0
0
0
0
0
0
0
0
0
0
0
0
0
0
0
0
0
0
0
0
0
0
0
0
0
0
0
0
0
0
0
1
1
0
0
0
0
0
0
0
0
0
0
0
0
0
0
0
0
0
0
0
0
1
1
0
0
0
0
0
0
0
0
0
0
0
0
0
0
0
0
0
0
0
0
0
0
0
0
0
0
0
0
0
0
0
0
0
1
1
0
0
0
0
0
0
0
0
0
0
0
0
0
0
0
0
0
0
0
0
1
1
0
0
0
0
0
0
0
0
0
0
0
0
0
0
0
0
0
0
0
0
0
0
0
0
0
0
0
0
0
0
0
0
0
1
1
0
0
0
0
0
0
0
0
0
0
0
0
0
0
0
0
0
0
0
0
1
1
0
0
0
0
0
0
0
0
0
0
0
0
0
0
0
0
0
0
0
0
0
0
0
0
0
0
0
0
0
0
0
0
0
1
1
0
0
0
0
0
0
0
0
0
0
0
0
0
0
0
0
0
0
0
0
1
1
0
0
0
0
0
0
0
0
0
0
0
0
0
0
0
0
0
0
0
0
0
0
0
0
0
0
0
0
0
0
0
0
0
1
1
0
0
0
0
0
0
0
0
0
0
0
0
0
0
0
0
0
0
0
0
1
1
0
0
0
0
0
0
0
0
0
0
0
0
0
0
0
0
0
0
0
0
0
0
0
0
0
0
0
0
0
0
0
0
0
1
1
0
0
0
0
0
0
0
0
0
0
0
0
0
0
0
0
0
0
0
0
1
1
0
0
0
0
0
0
0
0
0
0
0
0
0
0
0
0
0
0
0
0
0
0
0
0
0
0
0
0
0
0
0
0
0
1
1
0
0
0
0
0
0
0
0
0
0
0
0
0
0
0
0
0
0
0
0
1
1
0
0
0
0
0
0
0
0
0
0
0
0
0
0
0
0
0
0
0
0
0
0
0
0
0
0
0
0
0
0
0
0
0
1
1
0
0
0
0
0
0
0
0
0
0
0
0
0
0
0
0
0
0
0
0
1
1
0
0
0
0
0
0
0
0
0
0
0
0
0
0
0
0
0
0
0
0
0
0
0
0
0
0
0
0
0
0
0
0
0
1
1
0
0
0
0
0
0
0
0
0
0
0
0
0
0
0
0
0
0
0
0
1
1
0
0
0
0
0
0
0
0
0
0
0
0
0
0
0
0
0
0
0
0
0
0
0
0
0
0
0
0
0
0
0
0
0
1
1
0
0
0
0
0
0
0
0
0
0
0
0
0
0
0
0
0
0
0
0
1
1
0
0
0
0
0
0
0
0
0
0
0
0
0
0
0
0
0
0
0
0
0
0
0
0
0
0
0
0
0
0
0
0
0
1
1
0
0
0
0
0
0
0
0
0
0
0
0
0
0
0
0
0
0
0
0
1
1
0
0
0
0
0
0
0
0
0
0
0
0
0
0
0
0
0
0
0
0
0
0
0
0
0
0
0
0
0
0
0
0
0
1
1
0
0
0
0
0
0
0
0
0
0
0
0
0
0
0
0
0
0
0
0
1
1
0
0
0
0
0
0
0
0
0
0
0
0
0
0
0
0
0
0
0
0
0
0
0
0
0
0
0
0
0
0
0
0
0
1
1
0
0
0
0
0
0
0
0
0
0
0
0
0
0
0
0
0
0
0
0
0
1
1
0
0
0
0
0
0
0
0
0
0
0
0
0
0
0
0
0
0
0
0
0
0
0
0
0
0
0
0
0
0
0
0
0
0
1
1
0
0
0
0
0
0
0
0
0
0
0
0
0
0
0
0
0
0
0
0
0
0
0
0
0
0
0
0
0
0
0
0
0
0
0
0
0
0
0
0
0
0
0
0
0
0
0
0
0
0
0
0
0
0
0
0
0
1
1
0
0
0
0
0
0
0
0
0
0
0
0
0
0
0
0
0
0
0
0
0
0
0
0
0
0
0
0
0
0
0
0
0
0
0
0
0
0
0
0
0
0
0
0
0
0
0
0
0
0
0
0
0
0
0
0
0
1
1
0
0
0
0
0
0
0
0
0
0
0
0
0
0
0
0
0
0
0
0
0
0
0
0
0
0
0
0
0
0
0
0
0
0
0
0
0
0
0
0
0
0
0
0
0
0
0
0
0
0
0
0
0
0
0
0
0
1
1
0
0
0
0
0
0
0
0
0
0
0
0
0
0
0
0
0
0
0
0
0
0
0
0
0
0
0
0
0
0
0
0
0
0
0
0
0
0
0
0
0
0
0
0
0
0
0
0
0
0
0
0
0
0
0
0
0
1
1
0
0
0
0
0
0
0
0
0
0
0
0
0
0
0
0
0
0
0
0
0
0
0
0
0
0
0
0
0
0
0
0
0
0
0
0
0
0
0
0
0
0
0
0
0
0
0
0
0
0
0
0
0
0
0
0
0
1
1
0
0
0
0
0
0
0
0
0
0
0
0
0
0
0
0
0
0
0
0
0
0
0
0
0
0
0
0
0
0
0
0
0
0
0
0
0
0
0
0
0
0
0
0
0
0
0
0
0
0
0
0
0
0
0
0
0
1
1
0
0
0
0
0
0
0
0
0
0
0
0
0
0
0
0
0
0
0
0
0
0
0
0
0
0
0
0
0
0
0
0
0
0
0
0
0
0
0
0
0
0
0
0
0
0
0
0
0
0
0
0
0
0
0
0
0
1
1
0
0
0
0
0
0
0
0
0
0
0
0
0
0
0
0
0
0
0
0
0
0
0
0
0
0
0
0
0
0
0
0
0
0
0
0
0
0
0
0
0
0
0
0
0
0
0
0
0
0
0
0
0
0
0
0
0
1
1
0
0
0
0
0
0
0
0
0
0
0
0
0
0
0
0
0
0
0
0
0
0
0
0
0
0
0
0
0
0
0
0
0
0
0
0
0
0
0
0
0
0
0
0
0
0
0
0
0
0
0
0
0
0
0
0
0
1
1
0
0
0
0
0
0
0
0
0
0
0
0
0
0
0
0
0
0
0
0
0
0
0
0
0
0
0
0
0
0
0
0
0
0
0
0
0
0
0
0
0
0
0
0
0
0
0
0
0
0
0
0
0
0
0
0
0
1
1
0
0
0
0
0
0
0
0
0
0
0
0
0
0
0
0
0
0
0
0
0
1
1
0
0
0
0
0
0
0
0
0
0
0
0
0
0
0
0
0
0
0
0
0
0
0
0
0
0
0
0
0
0
0
0
0
0
1
1
0
0
0
0
0
0
0
0
0
0
0
0
0
0
0
0
0
0
0
0
1
1
0
0
0
0
0
0
0
0
0
0
0
0
0
0
0
0
0
0
0
0
0
0
0
0
0
0
0
0
0
0
0
0
0
1
1
0
0
0
0
0
0
0
0
0
0
0
0
0
0
0
0
0
0
0
0
1
1
0
0
0
0
0
0
0
0
0
0
0
0
0
0
0
0
0
0
0
0
0
0
0
0
0
0
0
0
0
0
0
0
0
1
1
0
0
0
0
0
0
0
0
0
0
0
0
0
0
0
0
0
0
0
0
1
1
0
0
0
0
0
0
0
0
0
0
0
0
0
0
0
0
0
0
0
0
0
0
0
0
0
0
0
0
0
0
0
0
0
1
1
0
0
0
0
0
0
0
0
0
0
0
0
0
0
0
0
0
0
0
0
1
1
0
0
0
0
0
0
0
0
0
0
0
0
0
0
0
0
0
0
0
0
0
0
0
0
0
0
0
0
0
0
0
0
0
1
1
0
0
0
0
0
0
0
0
0
0
0
0
0
0
0
0
0
0
0
0
1
1
0
0
0
0
0
0
0
0
0
0
0
0
0
0
0
0
0
0
0
0
0
0
0
0
0
0
0
0
0
0
0
0
0
1
1
0
0
0
0
0
0
0
0
0
0
0
0
0
0
0
0
0
0
0
0
1
1
0
0
0
0
0
0
0
0
0
0
0
0
0
0
0
0
0
0
0
0
0
0
0
0
0
0
0
0
0
0
0
0
0
1
1
0
0
0
0
0
0
0
0
0
0
0
0
0
0
0
0
0
0
0
0
1
1
0
0
0
0
0
0
0
0
0
0
0
0
0
0
0
0
0
0
0
0
0
0
0
0
0
0
0
0
0
0
0
0
0
1
1
0
0
0
0
0
0
0
0
0
0
0
0
0
0
0
0
0
0
0
0
1
1
0
0
0
0
0
0
0
0
0
0
0
0
0
0
0
0
0
0
0
0
0
0
0
0
0
0
0
0
0
0
0
0
0
1
1
0
0
0
0
0
0
0
0
0
0
0
0
0
0
0
0
0
0
0
0
1
1
0
0
0
0
0
0
0
0
0
0
0
0
0
0
0
0
0
0
0
0
0
0
0
0
0
0
0
0
0
0
0
0
0
1
1
0
0
0
0
0
0
0
0
0
0
0
0
0
0
0
0
0
0
0
0
1
1
0
0
0
0
0
0
0
0
0
0
0
0
0
0
0
0
0
0
0
0
0
0
0
0
0
0
0
0
0
0
0
0
0
1
1
0
0
0
0
0
0
0
0
0
0
0
0
0
0
0
0
0
0
0
0
1
1
0
0
0
0
0
0
0
0
0
0
0
0
0
0
0
0
0
0
0
0
0
0
0
0
0
0
0
0
0
0
0
0
0
1
1
0
0
0
0
0
0
0
0
0
0
0
0
0
0
0
0
0
0
0
0
1
1
0
0
0
0
0
0
0
0
0
0
0
0
0
0
0
0
0
0
0
0
0
0
0
0
0
0
0
0
0
0
0
0
0
1
1
0
0
0
0
0
0
0
0
0
0
0
0
0
0
0
0
0
0
0
0
1
1
0
0
0
0
0
0
0
0
0
0
0
0
0
0
0
0
0
0
0
0
0
0
0
0
0
0
0
0
0
0
0
0
0
1
1
0
0
0
0
0
0
0
0
0
0
0
0
0
0
0
0
0
0
0
0
1
1
0
0
0
0
0
0
0
0
0
0
0
0
0
0
0
0
0
0
0
0
0
0
0
0
0
0
0
0
0
0
0
0
0
1
1
0
0
0
0
0
0
0
0
0
0
0
0
0
0
0
0
0
0
0
0
1
1
0
0
0
0
0
0
0
0
0
0
0
0
0
0
0
0
0
0
0
0
0
0
0
0
0
0
0
0
0
0
0
0
0
1
1
0
0
0
0
0
0
0
0
0
0
0
0
0
0
0
0
0
0
0
0
1
1
0
0
0
0
0
0
0
0
0
0
0
0
0
0
0
0
0
0
0
0
0
0
0
0
0
0
0
0
0
0
0
0
0
1
1
0
0
0
0
0
0
0
0
0
0
0
0
0
0
0
0
0
0
0
0
1
1
0
0
0
0
0
0
0
0
0
0
0
0
0
0
0
0
0
0
0
0
0
0
0
0
0
0
0
0
0
0
0
0
0
1
1
0
0
0
0
0
0
0
0
0
0
0
0
0
0
0
0
0
0
0
0
1
1
0
0
0
0
0
0
0
0
0
0
0
0
0
0
0
0
0
0
0
0
0
0
0
0
0
0
0
0
0
0
0
0
0
1
1
0
0
0
0
0
0
0
0
0
0
0
0
0
0
0
0
0
0
0
0
1
1
0
0
0
0
0
0
0
0
0
0
0
0
0
0
0
0
0
0
0
0
0
0
0
0
0
0
0
0
0
0
0
0
0
1
1
0
0
0
0
0
0
0
0
0
0
0
0
0
0
0
0
0
0
0
0
1
1
0
0
0
0
0
0
0
0
0
0
0
0
0
0
0
0
0
0
0
0
0
0
0
0
0
0
0
0
0
0
0
0
0
1
1
0
0
0
0
0
0
0
0
0
0
0
0
0
0
0
0
0
0
0
0
1
1
0
0
0
0
0
0
0
0
0
0
0
0
0
0
0
0
0
0
0
0
0
0
0
0
0
0
0
0
0
0
0
0
0
1
1
1
1
1
1
1
1
1
1
1
1
1
1
1
1
1
1
1
1
1
1
1
1
1
1
1
1
1
1
1
1
1
1
1
1
1
1
1
1
1
1
1
1
1
1
1
1
1
1
1
1
1
1
1
1
1
1
				</DataArray>
				<DataArray type="Float64" Name="h" NumberOfComponents="1" Format="ascii">
1.1520743891
1.1531913458
1.1530157075
1.1526691598
1.1521599502
1.1515002499
1.1507059195
1.1497960555
1.1487926166
1.1477199863
1.1466043290
1.1454729696
1.1443537989
1.1432745384
1.1422619876
1.1413414010
1.1405358464
1.1398655125
1.1393472289
1.1389940885
1.1388149895
1.1388149895
1.2187453308
1.2169455223
1.2171470950
1.2175539408
1.2181694903
1.2189981523
1.2200440570
1.2213092707
1.2227924012
1.2244866972
1.2263781596
1.2284445700
1.2306546809
1.2329683094
1.2353379382
1.2377108651
1.2400323802
1.2422497454
1.2443156946
1.2461917097
1.2478504266
1.2492765035
1.2504666707
1.2514285236
1.2521784663
1.2527396827
1.2531395662
1.2534073555
1.2535724634
1.2536625561
1.2537022119
1.2537122913
1.2537089105
1.2537029640
1.2537029640
1.1531913458
1.1542376582
1.1540604107
1.1537106675
1.1531968460
1.1525313501
1.1517303139
1.1508131292
1.1498020402
1.1487216903
1.1475984688
1.1464598817
1.1453339612
1.1442485349
1.1432304797
1.1423051096
1.1414955333
1.1408219697
1.1403012720
1.1399465423
1.1397666816
1.1388149895
1.2169455223
1.2151871822
1.2154128084
1.2158672124
1.2165525640
1.2174713481
1.2186250545
1.2200123493
1.2216276990
1.2234595279
1.2254884897
1.2276867895
1.2300177417
1.2324363169
1.2348912180
1.2373274032
1.2396894994
1.2419258021
1.2439915590
1.2458518620
1.2474835432
1.2488755284
1.2500284618
1.2509531771
1.2516684881
1.2521991496
1.2525733573
1.2528205323
1.2529698206
1.2530483269
1.2530799255
1.2530847540
1.2530782849
1.2530709290
1.2537029640
1.1528867721
1.1539251366
1.1537465726
1.1533942940
1.1528768806
1.1522069617
1.1514009402
1.1504784957
1.1494621565
1.1483768242
1.1472490998
1.1461066426
1.1449775716
1.1438897345
1.1428699680
1.1419434957
1.1411333030
1.1404594690
1.1399387085
1.1395840049
1.1394041725
1.1384783727
1.2169157230
1.2151659312
1.2153901908
1.2158419298
1.2165234069
1.2174372441
1.2185851180
1.2199659315
1.2215744398
1.2233994056
1.2254218645
1.2276144340
1.2299408531
1.2323565034
1.2348104553
1.2372479602
1.2396138394
1.2418564653
1.2439310374
1.2458024808
1.2474473542
1.2488542234
1.2500233070
1.2509649813
1.2516975859
1.2522454018
1.2526361652
1.2528988622
1.2530622395
1.2531530484
1.2531948608
1.2532075692
1.2532064613
1.2532018243
1.2538350091
1.1522883592
1.1533106230
1.1531296107
1.1527726233
1.1522485517
1.1515704564
1.1507552535
1.1498231713
1.1487972779
1.1477029622
1.1465672217
1.1454179964
1.1442835563
1.1431917697
1.1421693755
1.1412414033
1.1404305805
1.1397566978
1.1392361864
1.1388817872
1.1387021384
1.1378274362
1.2168333793
1.2151005848
1.2153225744
1.2157698815
1.2164448951
1.2173504452
1.2184885036
1.2198583633
1.2214552733
1.2232685957
1.2252800624
1.2274630616
1.2297821408
1.2321934775
1.2346468629
1.2370881320
1.2394624995
1.2417185016
1.2438112562
1.2457053695
1.2473768730
1.2488136350
1.2500150526
1.2509905987
1.2517576726
1.2523396167
1.2527632607
1.2530567373
1.2532480146
1.2533631571
1.2534251522
1.2534534197
1.2534628922
1.2534636200
1.2540989566
1.1514108904
1.1524090139
1.1522247041
1.1518613854
1.1513283826
1.1506393560
1.1498119356
1.1488671100
1.1478286926
1.1467227409
1.1455767895
1.1444191498
1.1432782777
1.1421820407
1.1411570096
1.1402279094
1.1394170737
1.1387438592
1.1382242730
1.1378706955
1.1376915035
1.1368910555
1.2166918885
1.2149843428
1.2152032364
1.2156444982
1.2163106924
1.2172049325
1.2183295975
1.2196845256
1.2212656643
1.2230632319
1.2250599615
1.2272303570
1.2295401395
1.2319466449
1.2344007134
1.2368490260
1.2392373619
1.2415144811
1.2436353603
1.2455641155
1.2472759787
1.2487577761
1.2500076834
1.2510338274
1.2518522181
1.2524848197
1.2529571391
1.2532960726
1.2535284677
1.2536794080
1.2537710511
1.2538221484
1.2538471335
1.2538557245
1.2544939941
1.1502756662
1.1512418195
1.1510537415
1.1506832068
1.1501400600
1.1494386808
1.1485975520
1.1476385678
1.1465864252
1.1454679663
1.1443113455
1.1431452879
1.1419984314
1.1408985951
1.1398720947
1.1389432333
1.1381338149
1.1374626217
1.1369451038
1.1365931711
1.1364148596
1.1357088444
1.2164814322
1.2148070982
1.2150221977
1.2154560521
1.2161114496
1.2169918655
1.2181001999
1.2194369918
1.2209990873
1.2227778072
1.2247571768
1.2269131379
1.2292129237
1.2316153577
1.2340726208
1.2365324642
1.2389413633
1.2412483237
1.2434080880
1.2453840797
1.2471504408
1.2486926003
1.2500071065
1.2511003055
1.2519863906
1.2526855426
1.2532215743
1.2536198137
1.2539057002
1.2541030965
1.2542331369
1.2543137551
1.2543587778
1.2543775215
1.2550191699
1.1489095789
1.1498362635
1.1496443788
1.1492665844
1.1487132892
1.1479996514
1.1471450758
1.1461724306
1.1451073556
1.1439775204
1.1428117164
1.1416390694
1.1404883550
1.1393872671
1.1383617632
1.1374356007
1.1366299206
1.1359627967
1.1354489994
1.1350998670
1.1349230240
1.1343278908
1.2161896054
1.2145560859
1.2147668677
1.2151922946
1.2158354305
1.2167001937
1.2177901198
1.2191066000
1.2206475715
1.2224056894
1.2243665395
1.2265077943
1.2287984997
1.2311992542
1.2336638246
1.2361412077
1.2385786583
1.2409254035
1.2431358158
1.2451723928
1.2470078736
1.2486259220
1.2500210516
1.2511974011
1.2521669506
1.2529477345
1.2535615556
1.2540319063
1.2543825982
1.2546361010
1.2548123954
1.2549285035
1.2549975823
1.2550285086
1.2556735324
1.1473436528
1.1482238499
1.1480285605
1.1476443179
1.1470820949
1.1463578272
1.1454918358
1.1445079512
1.1434327360
1.1422946543
1.1411230859
1.1399474913
1.1387966986
1.1376981739
1.1366773987
1.1357574578
1.1349586989
1.1342983630
1.1337904287
1.1334455721
1.1332709428
1.1327989029
1.2158030197
1.2142175120
1.2144236600
1.2148400436
1.2154700578
1.2163181472
1.2173885961
1.2186837951
1.2202029525
1.2219402708
1.2238831360
1.2260112082
1.2282956016
1.2306989261
1.2331767249
1.2356793610
1.2381548977
1.2405527072
1.2428266127
1.2449379160
1.2468576222
1.2485672474
1.2500588584
1.2513339826
1.2524020216
1.2532785501
1.2539831082
1.2545371583
1.2549627422
1.2552808404
1.2555102208
1.2556669615
1.2557635360
1.2558083780
1.2564562174
1.1456119306
1.1464392441
1.1462413602
1.1458522727
1.1452834756
1.1445516213
1.1436778721
1.1426869339
1.1416061971
1.1404648183
1.1392926572
1.1381193948
1.1369737919
1.1358829612
1.1348717804
1.1339625329
1.1331746480
1.1325244178
1.1320249267
1.1316861074
1.1315145782
1.1311733992
1.2153072151
1.2137764946
1.2139779388
1.2143851419
1.2150018886
1.2158332329
1.2168843165
1.2181586669
1.2196569274
1.2213750343
1.2233023801
1.2254208231
1.2277037491
1.2301159562
1.2326148933
1.2351523492
1.2376771691
1.2401387423
1.2424901122
1.2446910734
1.2467105839
1.2485276150
1.2501313247
1.2515202829
1.2527009881
1.2536862965
1.2544932993
1.2551413113
1.2556505439
1.2560404736
1.2563286715
1.2565303026
1.2566571938
1.2567173676
1.2573667954
1.1437502287
1.1445190331
1.1443197092
1.1439280456
1.1433559781
1.1426207643
1.1417442726
1.1407519339
1.1396718079
1.1385335843
1.1373674445
1.1362031379
1.1350692105
1.1339922803
1.1329964862
1.1321031811
1.1313307560
1.1306944442
1.1302063411
1.1298755601
1.1297081360
1.1295012093
1.2146875849
1.2132180017
1.2134149544
1.2138133889
1.2144175383
1.2152331450
1.2162663076
1.2175218129
1.2190018793
1.2207043305
1.2226207274
1.2247352880
1.2270238090
1.2294533887
1.2319834454
1.2345671885
1.2371541584
1.2396935931
1.2421374934
1.2444438006
1.2465790693
1.2485193586
1.2502504538
1.2517676384
1.2530742395
1.2541801958
1.2551000330
1.2558508786
1.2564511341
1.2569188372
1.2572704516
1.2575203238
1.2576797207
1.2577563187
1.2584053373
1.1417946413
1.1425002190
1.1423008685
1.1419093962
1.1413380716
1.1406046071
1.1397313966
1.1387443966
1.1376721310
1.1365446199
1.1353921735
1.1342444297
1.1331295551
1.1320735215
1.1310995907
1.1302280581
1.1294761580
1.1288579590
1.1283844742
1.1280639232
1.1279017051
1.1278283752
1.2139311050
1.2125285925
1.2127215704
1.2131122387
1.2137053350
1.2145073609
1.2155254559
1.2167657666
1.2182321968
1.2199245687
1.2218367297
1.2239553556
1.2262587383
1.2287163116
1.2312894595
1.2339327448
1.2365962691
1.2392288987
1.2417812999
1.2442092302
1.2464764742
1.2485557283
1.2504290347
1.2520880699
1.2535327662
1.2547700112
1.2558117198
1.2566728662
1.2573701387
1.2579202765
1.2583387940
1.2586393709
1.2588328456
1.2589266449
1.2595724020
1.1397805073
1.1404191500
1.1402213515
1.1398331546
1.1392670355
1.1385409868
1.1376777174
1.1367034804
1.1356470293
1.1345384860
1.1334080760
1.1322851314
1.1311972661
1.1301696511
1.1292245321
1.1283810192
1.1276550712
1.1270594813
1.1266040815
1.1262961153
1.1261402881
1.1261963984
1.2130263099
1.2116963924
1.2118862459
1.2122707998
1.2128553434
1.2136471906
1.2146545810
1.2158850910
1.2173443741
1.2190343198
1.2209511123
1.2230839387
1.2254135892
1.2279118211
1.2305418940
1.2332596073
1.2360154317
1.2387576144
1.2414351912
1.2440014033
1.2464168917
1.2486505513
1.2506803065
1.2524939642
1.2540878821
1.2554658177
1.2566370964
1.2576146466
1.2584136072
1.2590496247
1.2595374832
1.2598903972
1.2601189456
1.2602304276
1.2608691448
1.1377415815
1.1383106665
1.1381160723
1.1377343727
1.1371781171
1.1364653926
1.1356190016
1.1346652524
1.1336328827
1.1325518791
1.1314521629
1.1303625647
1.1293099730
1.1283186051
1.1274095526
1.1266006101
1.1259063330
1.1253381154
1.1249044908
1.1246116264
1.1244634614
1.1246420216
1.2119641228
1.2107118983
1.2108998414
1.2112806442
1.2118601754
1.2126465848
1.2136492332
1.2148771439
1.2163377404
1.2180349727
1.2199673690
1.2221265863
1.2244958834
1.2270492537
1.2297517158
1.2325600950
1.2354250191
1.2382938441
1.2411136796
1.2438349641
1.2464147711
1.2488177690
1.2510174698
1.2529975599
1.2547507006
1.2562774920
1.2575847419
1.2586834974
1.2595875778
1.2603117953
1.2608704711
1.2612765982
1.2615406942
1.2616700718
1.2622970030
1.1357091774
1.1362072030
1.1360174567
1.1356454563
1.1351036929
1.1344101660
1.1335875540
1.1326619846
1.1316619398
1.1306170412
1.1295566954
1.1285090452
1.1275000909
1.1265529498
1.1256874233
1.1249198533
1.1242632474
1.1237274488
1.1233195431
1.1230444884
1.1229053606
1.1231972950
1.2107391486
1.2095692483
1.2097568789
1.2101370492
1.2107162035
1.2115033053
1.2125087941
1.2137431036
1.2152153654
1.2169315367
1.2188923961
1.2210919913
1.2235159363
1.2261403460
1.2289318393
1.2318480770
1.2348395428
1.2378524233
1.2408315348
1.2437244981
1.2464843175
1.2490707669
1.2514529643
1.2536102547
1.2555314696
1.2572140637
1.2586624570
1.2598860198
1.2608975262
1.2617112625
1.2623413861
1.2628009405
1.2631006037
1.2632478560
1.2638572911
1.1337116894
1.1341382646
1.1339549345
1.1335956858
1.1330728310
1.1324041161
1.1316118955
1.1307219011
1.1297621411
1.1287616644
1.1277491748
1.1267519622
1.1257949933
1.1249001521
1.1240858142
1.1233667198
1.1227541541
1.1222562126
1.1218783280
1.1216240621
1.1214954933
1.1218904018
1.2093491859
1.2082656978
1.2084550350
1.2088385292
1.2094231437
1.2102185561
1.2112361642
1.2124876777
1.2139838104
1.2157323698
1.2177362488
1.2199917245
1.2224865947
1.2251989312
1.2280967860
1.2311384517
1.2342740773
1.2374483528
1.2406035289
1.2436840122
1.2466385222
1.2494217067
1.2519979377
1.2543420519
1.2564390211
1.2582831803
1.2598767281
1.2612276187
1.2623478672
1.2632515705
1.2639530520
1.2644656884
1.2648005545
1.2649654617
1.2655507742
1.1317744495
1.1321302570
1.1319547833
1.1316110894
1.1311112072
1.1304724871
1.1297167907
1.1288692712
1.1279572809
1.1270091234
1.1260526475
1.1251141577
1.1242174694
1.1233831172
1.1226279190
1.1219648457
1.1214032413
1.1209491862
1.1206061658
1.1203760734
1.1202597991
1.1207466746
1.2077953712
1.2068017194
1.2069952580
1.2073869834
1.2079842380
1.2087972047
1.2098379880
1.2111193353
1.2126532969
1.2144493129
1.2165121769
1.2188401781
1.2214230865
1.2242407154
1.2272623651
1.2304468231
1.2337436969
1.2370959972
1.2404431758
1.2437261141
1.2468889542
1.2498809095
1.2526614204
1.2552007098
1.2574798449
1.2594901718
1.2612318061
1.2627115535
1.2639409967
1.2649343669
1.2657065005
1.2662714068
1.2666407904
1.2668229635
1.2673767201
1.1299196025
1.1302063222
1.1300399808
1.1297143261
1.1292410302
1.1286369379
1.1279232867
1.1271245130
1.1262671758
1.1253787095
1.1244860025
1.1236142869
1.1227861478
1.1220206817
1.1213330246
1.1207341894
1.1202312995
1.1198280490
1.1195255460
1.1193236045
1.1192216559
1.1197895592
1.2060822911
1.2051811020
1.2053818768
1.2057878316
1.2064064234
1.2072479596
1.2083248278
1.2096504081
1.2112377359
1.2130975705
1.2152363408
1.2176541121
1.2203423936
1.2232825391
1.2264449304
1.2297886918
1.2332628050
1.2368085062
1.2403625898
1.2438615069
1.2472445930
1.2504557729
1.2534492197
1.2561906138
1.2586570923
1.2608370341
1.2627287063
1.2643379451
1.2656762572
1.2667583650
1.2675999354
1.2682159138
1.2686188720
1.2688177833
1.2693319286
1.1281660986
1.1283863065
1.1282301836
1.1279246863
1.1274810735
1.1269156109
1.1262488254
1.1255043487
1.1247078666
1.1238858784
1.1230642683
1.1222671676
1.1215159081
1.1208281030
1.1202171029
1.1196917539
1.1192566026
1.1189124341
1.1186573316
1.1184883903
1.1184031841
1.1190418572
1.2042163399
1.2034093463
1.2036210340
1.2040484276
1.2046986871
1.2055816840
1.2067094147
1.2080953616
1.2097530846
1.2116942830
1.2139267000
1.2164518881
1.2192628468
1.2223422475
1.2256613558
1.2291796241
1.2328458252
1.2365984844
1.2403715590
1.2440977330
1.2477107729
1.2511495511
1.2543630041
1.2573119178
1.2599697000
1.2623215672
1.2643641269
1.2661026634
1.2675488358
1.2687182076
1.2696275928
1.2702931381
1.2707285186
1.2709435306
1.2714096369
1.1265299959
1.1266870533
1.1265420272
1.1262584056
1.1258470081
1.1253234859
1.1247076172
1.1240221988
1.1232920262
1.1225426681
1.1217990350
1.1210842090
1.1204183232
1.1198175353
1.1192933552
1.1188522521
1.1184957491
1.1182209851
1.1180220193
1.1178921734
1.1178265296
1.1185269653
1.2022040921
1.2014920247
1.2017186816
1.2021759578
1.2028702101
1.2038098414
1.2050055658
1.2064701306
1.2082170150
1.2102584126
1.2126030466
1.2152536798
1.2182045611
1.2214394696
1.2249303689
1.2286366420
1.2325057721
1.2364753991
1.2404767894
1.2444382480
1.2482882039
1.2519604897
1.2553989987
1.2585596511
1.2614107195
1.2639354635
1.2661288059
1.2679956645
1.2695481433
1.2708028680
1.2717781163
1.2724914936
1.2729579846
1.2731883739
1.2735979685
1.1250247407
1.1251226638
1.1249893931
1.1247289437
1.1243516962
1.1238726907
1.1233109675
1.1226885173
1.1220292969
1.1213580268
1.1206987640
1.1200736934
1.1195019159
1.1189982788
1.1185724994
1.1182285103
1.1179642881
1.1177722991
1.1176409998
1.1175580826
1.1175149471
1.1182699826
1.2000515225
1.1994340599
1.1996795452
1.2001764443
1.2009295639
1.2019441894
1.2032280628
1.2047919707
1.2066484826
1.2088097643
1.2112852019
1.2140785680
1.2171852262
1.2205899803
1.2242654431
1.2281710150
1.2322533604
1.2364483396
1.2406846473
1.2448862094
1.2489764981
1.2528846172
1.2565489886
1.2599207754
1.2629654316
1.2656626226
1.2680057790
1.2699994021
1.2716562665
1.2729941657
1.2740331003
1.2747924371
1.2752886613
1.2755336733
1.2758786290
1.1236613160
1.1237046454
1.1235835582
1.1233471348
1.1230053421
1.1225726483
1.1220674144
1.1215109112
1.1209263791
1.1203378565
1.1197687704
1.1192406866
1.1187719971
1.1183765691
1.1180625809
1.1178314326
1.1176770484
1.1175858484
1.1175381544
1.1175125002
1.1174937838
1.1182988135
1.1977628342
1.1972389189
1.1975055928
1.1980538579
1.1988848315
1.1999972993
1.2013933048
1.2030799633
1.2050680111
1.2073691699
1.2099933336
1.2129452566
1.2162214395
1.2198077504
1.2236775070
1.2277902449
1.2320919766
1.2365169734
1.2409911029
1.2454342756
1.2497654285
1.2539088750
1.2577980474
1.2613795460
1.2646150279
1.2674816706
1.2699715132
1.2720887842
1.2738469282
1.2752653106
1.2763656648
1.2771691017
1.2776937266
1.2779526737
1.2782256660
1.1224486554
1.1224423343
1.1223336163
1.1221216068
1.1218159048
1.1214304777
1.1209831063
1.1204944813
1.1199873136
1.1194852095
1.1190112983
1.1185869561
1.1182303950
1.1179551198
1.1177683858
1.1176694760
1.1176480370
1.1176828331
1.1177420066
1.1177878683
1.1177906207
1.1186447039
1.1953388556
1.1949075602
1.1951912454
1.1958053308
1.1967398605
1.1979799266
1.1995173894
1.2013535156
1.2034964383
1.2059573494
1.2087468625
1.2118709781
1.2153275828
1.2191038035
1.2231738717
1.2274976881
1.2320208700
1.2366763489
1.2413871816
1.2460695099
1.2506382178
1.2550129691
1.2591224208
1.2629088459
1.2663303641
1.2693616633
1.2719935242
1.2742301327
1.2760857274
1.2775811827
1.2787401024
1.2795854704
1.2801370639
1.2804092766
1.2806041952
1.1213940239
1.1213432715
1.1212468566
1.1210591614
1.1207894790
1.1204513697
1.1200621651
1.1196421547
1.1192137583
1.1188004686
1.1184255513
1.1181107787
1.1178749648
1.1177322638
1.1176902361
1.1177473048
1.1178895516
1.1180868203
1.1182891992
1.1184281339
1.1184330563
1.1193409979
1.1927773243
1.1924398806
1.1927152814
1.1934147911
1.1944910719
1.1958998095
1.1976157270
1.1996321209
1.2019545232
1.2045943349
1.2075637223
1.2108706665
1.2145149801
1.2184854628
1.2227575956
1.2272919696
1.2320340878
1.2369158428
1.2418576850
1.2467723174
1.2515709893
1.2561690244
1.2604906117
1.2644739415
1.2680738232
1.2712626325
1.2740300240
1.2763801914
1.2783282560
1.2798966392
1.2811108309
1.2819956840
1.2825726485
1.2828573873
1.2829696465
1.1205031544
1.1204133569
1.1203289168
1.1201649243
1.1199304375
1.1196387166
1.1193067908
1.1189547464
1.1186049759
1.1182812148
1.1180073647
1.1178063082
1.1176984954
1.1177002275
1.1178214946
1.1180626622
1.1184092406
1.1188234186
1.1192307134
1.1195018953
1.1194407566
1.1204171803
1.1900803637
1.1898444153
1.1900236924
1.1908427230
1.1921246658
1.1937623372
1.1957045578
1.1979366081
1.2004636838
1.2032997388
1.2064603472
1.2099567851
1.2137917032
1.2179561824
1.2224273899
1.2271669358
1.2321205112
1.2372192971
1.2423814967
1.2475167975
1.2525332040
1.2573421055
1.2618635987
1.2660321306
1.2697994858
1.2731359244
1.2760301162
1.2784863332
1.2805205880
1.2821568229
1.2834223578
1.2843438562
1.2849443685
1.2852407796
1.2852675754
1.1197806258
1.1196572452
1.1195841797
1.1194427425
1.1192418282
1.1189945033
1.1187176390
1.1184313083
1.1181581270
1.1179224141
1.1177491952
1.1176632020
1.1176877046
1.1178430613
1.1181448755
1.1186006802
1.1192035673
1.1199184614
1.1206493953
1.1211589918
1.1208609238
1.1219314277
1.1872813639
1.1871704146
1.1869860924
1.1880083361
1.1896161197
1.1915752754
1.1938055698
1.1962923298
1.1990478456
1.2020937217
1.2054521229
1.2091395681
1.2131627396
1.2175157254
1.2221778231
1.2271119549
1.2322642704
1.2375655195
1.2429322535
1.2482715572
1.2534884693
1.2584910345
1.2631957099
1.2675336309
1.2714539085
1.2749249632
1.2779346372
1.2804873314
1.2825999323
1.2842978005
1.2856099606
1.2865647432
1.2871866733
1.2874937619
1.2874342433
1.1192302246
1.1190787095
1.1190161422
1.1188955618
1.1187257632
1.1185197133
1.1182942466
1.1180695756
1.1178687314
1.1177168680
1.1176404926
1.1176667522
1.1178227117
1.1181346895
1.1186277408
1.1193253978
1.1202498651
1.1214237241
1.1228760877
1.1246696298
1.1269884449
1.1310263039
1.1461799069
1.1488903465
1.1768739401
1.1799760598
1.1822357982
1.1845247436
1.1868858122
1.1893500106
1.1919521556
1.1947331793
1.1977352416
1.2009975243
1.2045534026
1.2084269178
1.2126299733
1.2171603095
1.2219996812
1.2271125197
1.2324455711
1.2379293737
1.2434796681
1.2490011768
1.2543961766
1.2595701315
1.2644364674
1.2689235129
1.2729781743
1.2765673731
1.2796783124
1.2823155847
1.2844968797
1.2862488371
1.2876019620
1.2885860358
1.2892268768
1.2895434648
1.2893988707
1.1188550541
1.1186807727
1.1186275507
1.1185255709
1.1183835794
1.1182145140
1.1180352568
1.1178662509
1.1177310395
1.1176557064
1.1176683343
1.1177985568
1.1180772632
1.1185366290
1.1192106898
1.1201369552
1.1213599701
1.1229378290
1.1249570534
1.1275636106
1.1310342949
1.1360738100
1.1454964074
1.1480999852
1.1662154217
1.1729333494
1.1774674687
1.1810651221
1.1842359784
1.1872419600
1.1902343993
1.1933158662
1.1965628626
1.2000349084
1.2037781341
1.2078249338
1.2121928500
1.2168834553
1.2218810281
1.2271514952
1.2326422537
1.2382836720
1.2439911644
1.2496677037
1.2552133326
1.2605313472
1.2655328729
1.2701441688
1.2743105023
1.2779977218
1.2811926302
1.2839000720
1.2861384462
1.2879354612
1.2893228475
1.2903315361
1.2909883372
1.2913130060
1.2910866833
1.1186578092
1.1184659973
1.1184206984
1.1183345148
1.1182161795
1.1180786447
1.1179388823
1.1178175909
1.1177388252
1.1177295351
1.1178192169
1.1180396532
1.1184248878
1.1190116547
1.1198403967
1.1209572497
1.1224177736
1.1242936535
1.1266840452
1.1297254858
1.1336246386
1.1387186295
1.1458512956
1.1513211957
1.1622512637
1.1689572569
1.1741018845
1.1783255554
1.1820203776
1.1854409554
1.1887605417
1.1921052208
1.1955704371
1.1992296473
1.2031389848
1.2073379107
1.2118489077
1.2166769260
1.2218084366
1.2272106295
1.2328313591
1.2386008424
1.2444339086
1.2502333127
1.2558971666
1.2613268584
1.2664323103
1.2711384616
1.2753896326
1.2791511147
1.2824096368
1.2851703310
1.2874522189
1.2892838730
1.2906977655
1.2917256241
1.2923949591
1.2927260318
1.2924228088
1.1186410165
1.1184367300
1.1183976794
1.1183239722
1.1182243504
1.1181118040
1.1180034061
1.1179200854
1.1178862952
1.1179296665
1.1180807757
1.1183729942
1.1188425772
1.1195292416
1.1204771698
1.1217366571
1.1233668073
1.1254394107
1.1280440261
1.1312932869
1.1353198212
1.1402704910
1.1463721685
1.1523152409
1.1602700710
1.1665438886
1.1717995301
1.1763105223
1.1803199948
1.1840276596
1.1875933681
1.1911457299
1.1947874109
1.1985995019
1.2026446640
1.2069673897
1.2115938151
1.2165313612
1.2217680338
1.2272718055
1.2329907046
1.2388546640
1.2447780100
1.2506632352
1.2564082179
1.2619131848
1.2670870796
1.2718545992
1.2761600171
1.2799687054
1.2832676158
1.2860622603
1.2883720405
1.2902257502
1.2916565867
1.2926967446
1.2933741243
1.2937093530
1.2933358751
1.1188070394
1.1185951333
1.1185604371
1.1184954356
1.1184088919
1.1183138377
1.1182274277
1.1181707530
1.1181685416
1.1182488621
1.1184429641
1.1187851660
1.1193129728
1.1200676427
1.1210949990
1.1224465598
1.1241810674
1.1263660750
1.1290786568
1.1324039207
1.1364266622
1.1412096172
1.1467807143
1.1526026188
1.1592241415
1.1651165283
1.1703347373
1.1749656244
1.1791496437
1.1830370805
1.1867678853
1.1904653424
1.1942332826
1.1981561670
1.2023002250
1.2067128838
1.2114224169
1.2164375693
1.2217469819
1.2273187522
1.2331006574
1.2390222062
1.2449973267
1.2509284226
1.2567134999
1.2622529571
1.2674560884
1.2722481163
1.2765740068
1.2803998220
1.2837131204
1.2865198757
1.2888397088
1.2907018007
1.2921393556
1.2931845664
1.2938653852
1.2942024929
1.2937683313
1.1191581093
1.1189432371
1.1189108163
1.1188503720
1.1187706957
1.1186848600
1.1186100757
1.1185675203
1.1185820453
1.1186818977
1.1188985861
1.1192667695
1.1198243610
1.1206130410
1.1216788802
1.1230730943
1.1248528712
1.1270815919
1.1298275026
1.1331594541
1.1371367296
1.1417870731
1.1470830155
1.1527235550
1.1587729818
1.1644288227
1.1695850872
1.1742492310
1.1785092273
1.1824854533
1.1863032699
1.1900803902
1.1939196254
1.1979062792
1.2021078261
1.2065726804
1.2113296877
1.2163876245
1.2217347248
1.2273384152
1.2331457141
1.2390854773