<VTKFile type="UnstructuredGrid" version="0.1">
	<UnstructuredGrid>
		<Piece NumberOfPoints="13548" NumberOfCells="3387">
			<CellData>
				<DataArray type="Int32" Name="ghost" NumberOfComponents="1" Format="ascii">
1
1
1
1
1
1
1
1
1
1
1
1
1
1
1
1
1
1
1
1
1
1
1
1
1
1
1
1
1
1
1
1
1
1
1
1
1
1
1
1
1
1
1
1
1
1
1
1
1
1
1
1
1
1
1
1
1
1
0
0
0
0
0
0
0
0
0
0
0
0
0
0
0
0
0
0
0
0
1
1
0
0
0
0
0
0
0
0
0
0
0
0
0
0
0
0
0
0
0
0
0
0
0
0
0
0
0
0
0
0
0
0
0
1
1
0
0
0
0
0
0
0
0
0
0
0
0
0
0
0
0
0
0
0
0
1
1
0
0
0
0
0
0
0
0
0
0
0
0
0
0
0
0
0
0
0
0
0
0
0
0
0
0
0
0
0
0
0
0
0
1
1
0
0
0
0
0
0
0
0
0
0
0
0
0
0
0
0
0
0
0
0
1
1
0
0
0
0
0
0
0
0
0
0
0
0
0
0
0
0
0
0
0
0
0
0
0
0
0
0
0
0
0
0
0
0
0
1
1
0
0
0
0
0
0
0
0
0
0
0
0
0
0
0
0
0
0
0
0
1
1
0
0
0
0
0
0
0
0
0
0
0
0
0
0
0
0
0
0
0
0
0
0
0
0
0
0
0
0
0
0
0
0
0
1
1
0
0
0
0
0
0
0
0
0
0
0
0
0
0
0
0
0
0
0
0
1
1
0
0
0
0
0
0
0
0
0
0
0
0
0
0
0
0
0
0
0
0
0
0
0
0
0
0
0
0
0
0
0
0
0
1
1
0
0
0
0
0
0
0
0
0
0
0
0
0
0
0
0
0
0
0
0
1
1
0
0
0
0
0
0
0
0
0
0
0
0
0
0
0
0
0
0
0
0
0
0
0
0
0
0
0
0
0
0
0
0
0
1
1
0
0
0
0
0
0
0
0
0
0
0
0
0
0
0
0
0
0
0
0
1
1
0
0
0
0
0
0
0
0
0
0
0
0
0
0
0
0
0
0
0
0
0
0
0
0
0
0
0
0
0
0
0
0
0
1
1
0
0
0
0
0
0
0
0
0
0
0
0
0
0
0
0
0
0
0
0
1
1
0
0
0
0
0
0
0
0
0
0
0
0
0
0
0
0
0
0
0
0
0
0
0
0
0
0
0
0
0
0
0
0
0
1
1
0
0
0
0
0
0
0
0
0
0
0
0
0
0
0
0
0
0
0
0
1
1
0
0
0
0
0
0
0
0
0
0
0
0
0
0
0
0
0
0
0
0
0
0
0
0
0
0
0
0
0
0
0
0
0
1
1
0
0
0
0
0
0
0
0
0
0
0
0
0
0
0
0
0
0
0
0
1
1
0
0
0
0
0
0
0
0
0
0
0
0
0
0
0
0
0
0
0
0
0
0
0
0
0
0
0
0
0
0
0
0
0
1
1
0
0
0
0
0
0
0
0
0
0
0
0
0
0
0
0
0
0
0
0
1
1
0
0
0
0
0
0
0
0
0
0
0
0
0
0
0
0
0
0
0
0
0
0
0
0
0
0
0
0
0
0
0
0
0
1
1
0
0
0
0
0
0
0
0
0
0
0
0
0
0
0
0
0
0
0
0
1
1
0
0
0
0
0
0
0
0
0
0
0
0
0
0
0
0
0
0
0
0
0
0
0
0
0
0
0
0
0
0
0
0
0
1
1
0
0
0
0
0
0
0
0
0
0
0
0
0
0
0
0
0
0
0
0
1
1
0
0
0
0
0
0
0
0
0
0
0
0
0
0
0
0
0
0
0
0
0
0
0
0
0
0
0
0
0
0
0
0
0
1
1
0
0
0
0
0
0
0
0
0
0
0
0
0
0
0
0
0
0
0
0
1
1
0
0
0
0
0
0
0
0
0
0
0
0
0
0
0
0
0
0
0
0
0
0
0
0
0
0
0
0
0
0
0
0
0
1
1
0
0
0
0
0
0
0
0
0
0
0
0
0
0
0
0
0
0
0
0
1
1
0
0
0
0
0
0
0
0
0
0
0
0
0
0
0
0
0
0
0
0
0
0
0
0
0
0
0
0
0
0
0
0
0
1
1
0
0
0
0
0
0
0
0
0
0
0
0
0
0
0
0
0
0
0
0
1
1
0
0
0
0
0
0
0
0
0
0
0
0
0
0
0
0
0
0
0
0
0
0
0
0
0
0
0
0
0
0
0
0
0
1
1
0
0
0
0
0
0
0
0
0
0
0
0
0
0
0
0
0
0
0
0
1
1
0
0
0
0
0
0
0
0
0
0
0
0
0
0
0
0
0
0
0
0
0
0
0
0
0
0
0
0
0
0
0
0
0
1
1
0
0
0
0
0
0
0
0
0
0
0
0
0
0
0
0
0
0
0
0
1
1
0
0
0
0
0
0
0
0
0
0
0
0
0
0
0
0
0
0
0
0
0
0
0
0
0
0
0
0
0
0
0
0
0
1
1
0
0
0
0
0
0
0
0
0
0
0
0
0
0
0
0
0
0
0
0
1
1
0
0
0
0
0
0
0
0
0
0
0
0
0
0
0
0
0
0
0
0
0
0
0
0
0
0
0
0
0
0
0
0
0
1
1
0
0
0
0
0
0
0
0
0
0
0
0
0
0
0
0
0
0
0
0
1
1
0
0
0
0
0
0
0
0
0
0
0
0
0
0
0
0
0
0
0
0
0
0
0
0
0
0
0
0
0
0
0
0
0
1
1
0
0
0
0
0
0
0
0
0
0
0
0
0
0
0
0
0
0
0
0
1
1
0
0
0
0
0
0
0
0
0
0
0
0
0
0
0
0
0
0
0
0
0
0
0
0
0
0
0
0
0
0
0
0
0
1
1
0
0
0
0
0
0
0
0
0
0
0
0
0
0
0
0
0
0
0
0
1
1
0
0
0
0
0
0
0
0
0
0
0
0
0
0
0
0
0
0
0
0
0
0
0
0
0
0
0
0
0
0
0
0
0
1
1
0
0
0
0
0
0
0
0
0
0
0
0
0
0
0
0
0
0
0
0
1
1
0
0
0
0
0
0
0
0
0
0
0
0
0
0
0
0
0
0
0
0
0
0
0
0
0
0
0
0
0
0
0
0
0
1
1
0
0
0
0
0
0
0
0
0
0
0
0
0
0
0
0
0
0
0
0
1
1
0
0
0
0
0
0
0
0
0
0
0
0
0
0
0
0
0
0
0
0
0
0
0
0
0
0
0
0
0
0
0
0
0
1
1
0
0
0
0
0
0
0
0
0
0
0
0
0
0
0
0
0
0
0
0
0
1
1
0
0
0
0
0
0
0
0
0
0
0
0
0
0
0
0
0
0
0
0
0
0
0
0
0
0
0
0
0
0
0
0
0
0
1
1
0
0
0
0
0
0
0
0
0
0
0
0
0
0
0
0
0
0
0
0
0
0
0
0
0
0
0
0
0
0
0
0
0
0
0
0
0
0
0
0
0
0
0
0
0
0
0
0
0
0
0
0
0
0
0
0
0
1
1
0
0
0
0
0
0
0
0
0
0
0
0
0
0
0
0
0
0
0
0
0
0
0
0
0
0
0
0
0
0
0
0
0
0
0
0
0
0
0
0
0
0
0
0
0
0
0
0
0
0
0
0
0
0
0
0
0
1
1
0
0
0
0
0
0
0
0
0
0
0
0
0
0
0
0
0
0
0
0
0
0
0
0
0
0
0
0
0
0
0
0
0
0
0
0
0
0
0
0
0
0
0
0
0
0
0
0
0
0
0
0
0
0
0
0
0
1
1
0
0
0
0
0
0
0
0
0
0
0
0
0
0
0
0
0
0
0
0
0
0
0
0
0
0
0
0
0
0
0
0
0
0
0
0
0
0
0
0
0
0
0
0
0
0
0
0
0
0
0
0
0
0
0
0
0
1
1
0
0
0
0
0
0
0
0
0
0
0
0
0
0
0
0
0
0
0
0
0
0
0
0
0
0
0
0
0
0
0
0
0
0
0
0
0
0
0
0
0
0
0
0
0
0
0
0
0
0
0
0
0
0
0
0
0
1
1
0
0
0
0
0
0
0
0
0
0
0
0
0
0
0
0
0
0
0
0
0
0
0
0
0
0
0
0
0
0
0
0
0
0
0
0
0
0
0
0
0
0
0
0
0
0
0
0
0
0
0
0
0
0
0
0
0
1
1
0
0
0
0
0
0
0
0
0
0
0
0
0
0
0
0
0
0
0
0
0
0
0
0
0
0
0
0
0
0
0
0
0
0
0
0
0
0
0
0
0
0
0
0
0
0
0
0
0
0
0
0
0
0
0
0
0
1
1
0
0
0
0
0
0
0
0
0
0
0
0
0
0
0
0
0
0
0
0
0
0
0
0
0
0
0
0
0
0
0
0
0
0
0
0
0
0
0
0
0
0
0
0
0
0
0
0
0
0
0
0
0
0
0
0
0
1
1
0
0
0
0
0
0
0
0
0
0
0
0
0
0
0
0
0
0
0
0
0
0
0
0
0
0
0
0
0
0
0
0
0
0
0
0
0
0
0
0
0
0
0
0
0
0
0
0
0
0
0
0
0
0
0
0
0
1
1
0
0
0
0
0
0
0
0
0
0
0
0
0
0
0
0
0
0
0
0
0
0
0
0
0
0
0
0
0
0
0
0
0
0
0
0
0
0
0
0
0
0
0
0
0
0
0
0
0
0
0
0
0
0
0
0
0
1
1
0
0
0
0
0
0
0
0
0
0
0
0
0
0
0
0
0
0
0
0
0
1
1
0
0
0
0
0
0
0
0
0
0
0
0
0
0
0
0
0
0
0
0
0
0
0
0
0
0
0
0
0
0
0
0
0
0
1
1
0
0
0
0
0
0
0
0
0
0
0
0
0
0
0
0
0
0
0
0
1
1
0
0
0
0
0
0
0
0
0
0
0
0
0
0
0
0
0
0
0
0
0
0
0
0
0
0
0
0
0
0
0
0
0
1
1
0
0
0
0
0
0
0
0
0
0
0
0
0
0
0
0
0
0
0
0
1
1
0
0
0
0
0
0
0
0
0
0
0
0
0
0
0
0
0
0
0
0
0
0
0
0
0
0
0
0
0
0
0
0
0
1
1
0
0
0
0
0
0
0
0
0
0
0
0
0
0
0
0
0
0
0
0
1
1
0
0
0
0
0
0
0
0
0
0
0
0
0
0
0
0
0
0
0
0
0
0
0
0
0
0
0
0
0
0
0
0
0
1
1
0
0
0
0
0
0
0
0
0
0
0
0
0
0
0
0
0
0
0
0
1
1
0
0
0
0
0
0
0
0
0
0
0
0
0
0
0
0
0
0
0
0
0
0
0
0
0
0
0
0
0
0
0
0
0
1
1
0
0
0
0
0
0
0
0
0
0
0
0
0
0
0
0
0
0
0
0
1
1
0
0
0
0
0
0
0
0
0
0
0
0
0
0
0
0
0
0
0
0
0
0
0
0
0
0
0
0
0
0
0
0
0
1
1
0
0
0
0
0
0
0
0
0
0
0
0
0
0
0
0
0
0
0
0
1
1
0
0
0
0
0
0
0
0
0
0
0
0
0
0
0
0
0
0
0
0
0
0
0
0
0
0
0
0
0
0
0
0
0
1
1
0
0
0
0
0
0
0
0
0
0
0
0
0
0
0
0
0
0
0
0
1
1
0
0
0
0
0
0
0
0
0
0
0
0
0
0
0
0
0
0
0
0
0
0
0
0
0
0
0
0
0
0
0
0
0
1
1
0
0
0
0
0
0
0
0
0
0
0
0
0
0
0
0
0
0
0
0
1
1
0
0
0
0
0
0
0
0
0
0
0
0
0
0
0
0
0
0
0
0
0
0
0
0
0
0
0
0
0
0
0
0
0
1
1
0
0
0
0
0
0
0
0
0
0
0
0
0
0
0
0
0
0
0
0
1
1
0
0
0
0
0
0
0
0
0
0
0
0
0
0
0
0
0
0
0
0
0
0
0
0
0
0
0
0
0
0
0
0
0
1
1
0
0
0
0
0
0
0
0
0
0
0
0
0
0
0
0
0
0
0
0
1
1
0
0
0
0
0
0
0
0
0
0
0
0
0
0
0
0
0
0
0
0
0
0
0
0
0
0
0
0
0
0
0
0
0
1
1
0
0
0
0
0
0
0
0
0
0
0
0
0
0
0
0
0
0
0
0
1
1
0
0
0
0
0
0
0
0
0
0
0
0
0
0
0
0
0
0
0
0
0
0
0
0
0
0
0
0
0
0
0
0
0
1
1
0
0
0
0
0
0
0
0
0
0
0
0
0
0
0
0
0
0
0
0
1
1
0
0
0
0
0
0
0
0
0
0
0
0
0
0
0
0
0
0
0
0
0
0
0
0
0
0
0
0
0
0
0
0
0
1
1
0
0
0
0
0
0
0
0
0
0
0
0
0
0
0
0
0
0
0
0
1
1
0
0
0
0
0
0
0
0
0
0
0
0
0
0
0
0
0
0
0
0
0
0
0
0
0
0
0
0
0
0
0
0
0
1
1
0
0
0
0
0
0
0
0
0
0
0
0
0
0
0
0
0
0
0
0
1
1
0
0
0
0
0
0
0
0
0
0
0
0
0
0
0
0
0
0
0
0
0
0
0
0
0
0
0
0
0
0
0
0
0
1
1
0
0
0
0
0
0
0
0
0
0
0
0
0
0
0
0
0
0
0
0
1
1
0
0
0
0
0
0
0
0
0
0
0
0
0
0
0
0
0
0
0
0
0
0
0
0
0
0
0
0
0
0
0
0
0
1
1
0
0
0
0
0
0
0
0
0
0
0
0
0
0
0
0
0
0
0
0
1
1
0
0
0
0
0
0
0
0
0
0
0
0
0
0
0
0
0
0
0
0
0
0
0
0
0
0
0
0
0
0
0
0
0
1
1
0
0
0
0
0
0
0
0
0
0
0
0
0
0
0
0
0
0
0
0
1
1
0
0
0
0
0
0
0
0
0
0
0
0
0
0
0
0
0
0
0
0
0
0
0
0
0
0
0
0
0
0
0
0
0
1
1
0
0
0
0
0
0
0
0
0
0
0
0
0
0
0
0
0
0
0
0
1
1
0
0
0
0
0
0
0
0
0
0
0
0
0
0
0
0
0
0
0
0
0
0
0
0
0
0
0
0
0
0
0
0
0
1
1
0
0
0
0
0
0
0
0
0
0
0
0
0
0
0
0
0
0
0
0
1
1
0
0
0
0
0
0
0
0
0
0
0
0
0
0
0
0
0
0
0
0
0
0
0
0
0
0
0
0
0
0
0
0
0
1
1
0
0
0
0
0
0
0
0
0
0
0
0
0
0
0
0
0
0
0
0
1
1
0
0
0
0
0
0
0
0
0
0
0
0
0
0
0
0
0
0
0
0
0
0
0
0
0
0
0
0
0
0
0
0
0
1
1
0
0
0
0
0
0
0
0
0
0
0
0
0
0
0
0
0
0
0
0
1
1
0
0
0
0
0
0
0
0
0
0
0
0
0
0
0
0
0
0
0
0
0
0
0
0
0
0
0
0
0
0
0
0
0
1
1
1
1
1
1
1
1
1
1
1
1
1
1
1
1
1
1
1
1
1
1
1
1
1
1
1
1
1
1
1
1
1
1
1
1
1
1
1
1
1
1
1
1
1
1
1
1
1
1
1
1
1
1
1
1
1
1
				</DataArray>
				<DataArray type="Float64" Name="h" NumberOfComponents="1" Format="ascii">
1.2050239696
1.2044747954
1.2046567220
1.2050163795
1.2055454237
1.2062315460
1.2070586662
1.2080072598
1.2090548183
1.2101762431
1.2113444278
1.2125309323
1.2137065474
1.2148420593
1.2159090355
1.2168804722
1.2177315896
1.2184405540
1.2189890349
1.2193628030
1.2195521551
1.2195521551
1.1594264877
1.1591990391
1.1594457484
1.1599393007
1.1606779153
1.1616588808
1.1628781804
1.1643299197
1.1660062081
1.1678966215
1.1699877009
1.1722629788
1.1747026532
1.1772835441
1.1799795907
1.1827620266
1.1855999938
1.1884615158
1.1913140077
1.1941252789
1.1968645595
1.1995029835
1.2020143815
1.2043757741
1.2065673280
1.2085726282
1.2103784787
1.2119744013
1.2133525787
1.2145073009
1.2154344096
1.2161312634
1.2165961648
1.2168280120
1.2168280120
1.2044747954
1.2039385688
1.2041220422
1.2044847195
1.2050181161
1.2057097324
1.2065432541
1.2074988879
1.2085538466
1.2096827572
1.2108582562
1.2120516815
1.2132336441
1.2143748006
1.2154466407
1.2164221286
1.2172764977
1.2179879567
1.2185382313
1.2189131566
1.2191030781
1.2195521551
1.1591990391
1.1590412844
1.1592954346
1.1598037564
1.1605640376
1.1615729401
1.1628256315
1.1643152110
1.1660326189
1.1679661164
1.1701008091
1.1724187324
1.1748985809
1.1775157291
1.1802428153
1.1830499869
1.1859055873
1.1887771482
1.1916319609
1.1944380689
1.1971652718
1.1997855584
1.2022738373
1.2046083497
1.2067705524
1.2087453284
1.2105207242
1.2120874068
1.2134385880
1.2145694423
1.2154765449
1.2161578451
1.2166120833
1.2168384472
1.2168280120
1.2043468675
1.2038256898
1.2040087939
1.2043707288
1.2049030035
1.2055931119
1.2064247348
1.2073780780
1.2084303613
1.2095562307
1.2107283581
1.2119181357
1.2130962515
1.2142334621
1.2153013793
1.2162731068
1.2171240275
1.2178325011
1.2183803936
1.2187536590
1.2189427282
1.2193848406
1.1594018726
1.1592455304
1.1594989585
1.1600058507
1.1607640490
1.1617702907
1.1630198345
1.1645058824
1.1662194822
1.1681490025
1.1702796512
1.1725935568
1.1750694942
1.1776829043
1.1804064760
1.1832103902
1.1860630269
1.1889318971
1.1917842933
1.1945882655
1.1973136205
1.1999323527
1.2024193712
1.2047529110
1.2069144144
1.2088887413
1.2106639060
1.2122305364
1.2135817992
1.2147128213
1.2156201313
1.2163016348
1.2167560360
1.2169824973
1.2169767779
1.2040886479
1.2035973449
1.2037797461
1.2041402661
1.2046703992
1.2053576233
1.2061856056
1.2071345459
1.2081816736
1.2093016682
1.2104672660
1.2116499637
1.2128205976
1.2139501195
1.2150103804
1.2159747577
1.2168189306
1.2175215567
1.2180647798
1.2184347893
1.2186221863
1.2190504697
1.1598034096
1.1596498133
1.1599018548
1.1604059995
1.1611601930
1.1621613144
1.1634047941
1.1648840278
1.1665902650
1.1685120745
1.1706348562
1.1729409120
1.1754091675
1.1780151885
1.1807317608
1.1835291352
1.1863757633
1.1892391659
1.1920866546
1.1948862958
1.1976079082
1.2002234929
1.2027079555
1.2050395142
1.2071995803
1.2091729654
1.2109476199
1.2125140948
1.2138654687
1.2149967764
1.2159044562
1.2165863294
1.2170410307
1.2172676733
1.2172712084
1.2036973199
1.2032504281
1.2034318360
1.2037903546
1.2043174528
1.2050005804
1.2058233794
1.2067660343
1.2078057822
1.2089173445
1.2100735459
1.2112460300
1.2124058465
1.2135242301
1.2145733787
1.2155270709
1.2163614206
1.2170555240
1.2175919352
1.2179571917
1.2181421462
1.2185498515
1.1604020469
1.1602519749
1.1605019400
1.1610019708
1.1617501672
1.1627436197
1.1639780141
1.1654470324
1.1671422212
1.1690524439
1.1711633812
1.1734575880
1.1759142088
1.1785089912
1.1812148624
1.1840021776
1.1868394879
1.1896943527
1.1925341212
1.1953268870
1.1980424884
1.2006529376
1.2031331363
1.2054612819
1.2076187449
1.2095902720
1.2113637270
1.2129295557
1.2142807156
1.2154121140
1.2163200645
1.2170022708
1.2174572706
1.2176841080
1.2177013017
1.2031689194
1.2027805330
1.2029607193
1.2033167727
1.2038401233
1.2045181767
1.2053345330
1.2062693464
1.2072998519
1.2084008138
1.2095451604
1.2107047149
1.2118507943
1.2129549924
1.2139899526
1.2149299696
1.2157517214
1.2164348757
1.2169625239
1.2173216596
1.2175034670
1.2178840259
1.1611949491
1.1610483856
1.1612955509
1.1617900363
1.1625301506
1.1635132697
1.1647354217
1.1661906712
1.1678709596
1.1697655392
1.1718604595
1.1741386058
1.1765794070
1.1791588457
1.1818500314
1.1846234543
1.1874477876
1.1902906555
1.1931194625
1.1959023420
1.1986091612
1.2012119516
1.2036856172
1.2060083381
1.2081614444
1.2101296130
1.2119006114
1.2134647662
1.2148148943
1.2159457538
1.2168535111
1.2175357302
1.2179908325
1.2182177797
1.2182528127
1.2024987811
1.2021823745
1.2023611885
1.2027144667
1.2032335827
1.2039058765
1.2047148828
1.2056407017
1.2066605479
1.2077492185
1.2088797491
1.2100241633
1.2111540843
1.2122415269
1.2132596650
1.2141834147
1.2149901353
1.2156601925
1.2161773357
1.2165291227
1.2167071479
1.2170542569
1.1621777189
1.1620336545
1.1622772551
1.1627646843
1.1634945198
1.1644645029
1.1656710975
1.1671088512
1.1687702004
1.1706448808
1.1727193972
1.1749770393
1.1773975812
1.1799572889
1.1826294901
1.1853848352
1.1881921354
1.1910191041
1.1938332170
1.1966026594
1.1992973389
1.2018893187
1.2043535188
1.2066681153
1.2088144100
1.2107770201
1.2125436231
1.2141044291
1.2154521127
1.2165812778
1.2174879366
1.2181695042
1.2186242773
1.2188511287
1.2189078457
1.2016821874
1.2014504157
1.2016277943
1.2019781610
1.2024928111
1.2031589900
1.2039601343
1.2048762573
1.2058845226
1.2069597381
1.2080750356
1.2092026432
1.2103145150
1.2113831339
1.2123822743
1.2132875639
1.2140771546
1.2147322292
1.2152373180
1.2155806512
1.2157543183
1.2160620326
1.1633444064
1.1632006855
1.1634399029
1.1639186640
1.1646358841
1.1655897598
1.1667772928
1.1681936211
1.1698317795
1.1716820825
1.1737315737
1.1759640170
1.1783595870
1.1808948751
1.1835434562
1.1862761606
1.1890619457
1.1918686360
1.1946637912
1.1974156596
1.2000942026
1.2026715324
1.2051226064
1.2074256206
1.2095618747
1.2115159515
1.2132754630
1.2148305255
1.2161736894
1.2172994184
1.2182035806
1.2188834481
1.2193371967
1.2195636127
1.2196453929
1.2007147924
1.2005792483
1.2007552225
1.2011027287
1.2016129565
1.2022730190
1.2030662115
1.2039724146
1.2049686982
1.2060298419
1.2071290450
1.2082387276
1.2093311809
1.2103793882
1.2113577758
1.2122427636
1.2130133994
1.2136518054
1.2141434210
1.2144772726
1.2146460397
1.2149088947
1.1646869473
1.1645401962
1.1647741478
1.1652425102
1.1659446192
1.1668792317
1.1680440026
1.1694347768
1.1710452951
1.1728665458
1.1748861918
1.1770885344
1.1794541961
1.1819601272
1.1845801707
1.1872853488
1.1900447634
1.1928263689
1.1955978165
1.1983274268
1.2009852297
1.2035434085
1.2059769865
1.2082642144
1.2103864301
1.2123282240
1.2140771864
1.2156233829
1.2169592786
1.2180792317
1.2189789955
1.2196557210
1.2201074793
1.2203329819
1.2204425941
1.1995935025
1.1995644261
1.1997391223
1.2000840078
1.2005901338
1.2012444344
1.2020300078
1.2029265429
1.2039109551
1.2049579375
1.2060407084
1.2071318488
1.2082039742
1.2092305760
1.2101867777
1.2110498598
1.2117998680
1.2124199945
1.2128967363
1.2132200647
1.2133833756
1.2135965331
1.1661948389
1.1660404787
1.1662682010
1.1667242896
1.1674086064
1.1683205973
1.1694587052
1.1708196108
1.1723978747
1.1741852524
1.1761701007
1.1783373124
1.1806679947
1.1831394789
1.1857258863
1.1883984336
1.1911263541
1.1938777449
1.1966203497
1.1993225676
1.2019545128
1.2044884647
1.2068995479
1.2091661133
1.2112695905
1.2131946369
1.2149288831
1.2164624075
1.2177876502
1.2188989192
1.2197919017
1.2204636663
1.2209122089
1.2211361870
1.2212756479
1.1983173584
1.1984033271
1.1985769590
1.1989196371
1.1994222362
1.2000714570
1.2008501340
1.2017376875
1.2027107960
1.2037439901
1.2048104371
1.2058828161
1.2069340376
1.2079380935
1.2088708250
1.2097104470
1.2104381130
1.2110382322
1.2114985426
1.2118101564
1.2119673604
1.2121267624
1.1678553645
1.1676877074
1.1679081252
1.1683498710
1.1690134756
1.1698992400
1.1710065588
1.1723330957
1.1738743498
1.1756229358
1.1775679694
1.1796949762
1.1819855700
1.1844174715
1.1869650777
1.1895997907
1.1922909496
1.1950067980
1.1977151666
1.2003845352
1.2029851165
1.2054893145
1.2078723958
1.2101128656
1.2121923121
1.2140955346
1.2158102836
1.2173267323
1.2186373762
1.2197365481
1.2206199367
1.2212845828
1.2217284500
1.2219501715
1.2221206269
1.1968882292
1.1970958358
1.1972686909
1.1976097215
1.1981095848
1.1987546868
1.1995275198
1.2004071385
1.2013698904
1.2023900371
1.2034405972
1.2044942705
1.2055241808
1.2065047998
1.2074127047
1.2082271013
1.2089303857
1.2095083742
1.2099502816
1.2102486354
1.2103988745
1.2105014098
1.1696534859
1.1694659388
1.1696778167
1.1701028794
1.1707425330
1.1715981586
1.1726703103
1.1739578029
1.1754572015
1.1771620622
1.1790623109
1.1811441289
1.1833896388
1.1857769401
1.1882806867
1.1908724436
1.1935216171
1.1961965879
1.1988652603
1.2014961914
1.2040597061
1.2065283608
1.2088776096
1.2110861737
1.2131358781
1.2150117514
1.2167017595
1.2181962698
1.2194879301
1.2205711912
1.2214418278
1.2220969232
1.2225344635
1.2227530964
1.2229547406
1.1953118073
1.1956453513
1.1958177704
1.1961578219
1.1966558996
1.1972980479
1.1980663261
1.1989393230
1.1998929224
1.2009010060
1.2019363061
1.2029714197
1.2039796078
1.2049357312
1.2058170979
1.2066039840
1.2072801643
1.2078331108
1.2082538628
1.2085367626
1.2086787969
1.2087224787
1.1715720478
1.1713574114
1.1715592647
1.1719648964
1.1725769026
1.1733980647
1.1744303614
1.1756739593
1.1771266144
1.1787828958
1.1806335639
1.1826654526
1.1848611689
1.1871991573
1.1896542888
1.1921982539
1.1948004741
1.1974294385
1.2000531067
1.2026401043
1.2051608754
1.2075881595
1.2098976435
1.2120683334
1.2140823750
1.2159251257
1.2175848750
1.2190522975
1.2203203051
1.2213835741
1.2222380640
1.2228809844
1.2233104106
1.2235250508
1.2237570992
1.1935982269
1.1940594793
1.1942318306
1.1945716266
1.1950689507
1.1957094139
1.1964745493
1.1973423555
1.1982881342
1.1992852016
1.2003058916
1.2013225156
1.2023083116
1.2032384898
1.2040910045
1.2048472156
1.2054924657
1.2060162035
1.2064117669
1.2066759233
1.2068078627
1.2067919925
1.1735927128
1.1733435510
1.1735334833
1.1739162896
1.1744962581
1.1752780290
1.1762653595
1.1774599951
1.1788610050
1.1804640072
1.1822605891
1.1842381905
1.1863798469
1.1886642830
1.1910665263
1.1935583355
1.1961090844
1.1986873253
1.2012610412
1.2037989150
1.2062715146
1.2086517878
1.2109157055
1.2130426233
1.2150150992
1.2168189243
1.2184428294
1.2198779201
1.2211174945
1.2221565728
1.2229914097
1.2236194350
1.2240388883
1.2242485917
1.2245093153
1.1917624759
1.1923505418
1.1925231913
1.1928634565
1.1933610623
1.1940011091
1.1947645088
1.1956285419
1.1965677732
1.1975548203
1.1985613394
1.1995592776
1.2005216335
1.2014237137
1.2022441297
1.2029653130
1.2035742728
1.2040627869
1.2044271520
1.2046675269
1.2047863837
1.2047116775
1.1756967805
1.1754058519
1.1755812719
1.1759368109
1.1764792677
1.1772158248
1.1781524870
1.1792928230
1.1806373014
1.1821825813
1.1839209964
1.1858405001
1.1879244500
1.1901517563
1.1924975117
1.1949334694
1.1974288840
1.1999523128
1.2024717108
1.2049558020
1.2073752856
1.2097033418
1.2119162675
1.2139938373
1.2159191085
1.2176784157
1.2192610520
1.2206586832
1.2218651242
1.2228758633
1.2236875677
1.2242979891
1.2247056125
1.2249094318
1.2251962581
1.1898248601
1.1905361570
1.1907094409
1.1910508463
1.1915496896
1.1921904946
1.1929534315
1.1938149659
1.1947487268
1.1957264653
1.1967190029
1.1976974943
1.1986346651
1.1995057379
1.2002896402
1.2009698870
1.2015351739
1.2019799067
1.2023042085
1.2025129957
1.2026139236
1.2024825917
1.1778663754
1.1775271034
1.1776841962
1.1780062764
1.1785040385
1.1791882475
1.1800677103
1.1811480648
1.1824311867
1.1839146625
1.1855914155
1.1874497262
1.1894731203
1.1916405547
1.1939270745
1.1963043313
1.1987413909
1.2012067309
1.2036682318
1.2060946301
1.2084567630
1.2107280595
1.2128851855
1.2149083967
1.2167813370
1.2184909876
1.2200273240
1.2213827034
1.2225515893
1.2235300667
1.2243153331
1.2249055666
1.2252995828
1.2254966072
1.2258062776
1.1878107278
1.1886391229
1.1888133185
1.1891564261
1.1896573109
1.1902998406
1.1910633842
1.1919233814
1.1928524802
1.1938211792
1.1947993483
1.1957570913
1.1966662582
1.1975023071
1.1982442221
1.1988758985
1.1993876619
1.1997768957
1.2000479387
1.2002130096
1.2002880049
1.2001037139
1.1800866102
1.1796935292
1.1798262293
1.1801057118
1.1805489633
1.1811717387
1.1819863413
1.1830006208
1.1842176855
1.1856357761
1.1872481022
1.1890430079
1.1910039441
1.1931097413
1.1953352599
1.1976519455
1.2000286041
1.2024335261
1.2048344847
1.2072002025
1.2095016408
1.2117124928
1.2138098314
1.2157744577
1.2175906764
1.2192462110
1.2207318331
1.2220407161
1.2231680998
1.2241107910
1.2248666348
1.2254343368
1.2258131268
1.2260025219
1.2263312919
1.1857499940
1.1866870980
1.1868624031
1.1872076258
1.1877111432
1.1883561137
1.1891209923
1.1899801518
1.1909048848
1.1918644812
1.1928270567
1.1937629085
1.1946431728
1.1954409721
1.1961341782
1.1967066723
1.1971501359
1.1974654643
1.1976640952
1.1977664485
1.1978017714
1.1975696684
1.1823481337
1.1818972783
1.1819952689
1.1822180579
1.1825928201
1.1831423216
1.1838830268
1.1848247163
1.1859713321
1.1873211847
1.1888672859
1.1905976468
1.1924953456
1.1945388577
1.1967027093
1.1989580267
1.2012733101
1.2036165668
1.2059553767
1.2082584729
1.2104969113
1.2126446571
1.2146792242
1.2165820099
1.2183380572
1.2199359048
1.2213672214
1.2226261110
1.2237087059
1.2246126505
1.2253365474
1.2258797251
1.2262419052
1.2264229530
1.2267668233
1.1836765357
1.1847121331
1.1848886522
1.1852362383
1.1857427426
1.1863905950
1.1871572235
1.1880158264
1.1889360622
1.1898863602
1.1908353937
1.1917500025
1.1925985877
1.1933527993
1.1939890528
1.1944902142
1.1948480334
1.1950657166
1.1951608975
1.1951686624
1.1951398363
1.1948661577
1.1846510116
1.1841402242
1.1841847982
1.1843281588
1.1846141521
1.1850749953
1.1857311410
1.1865936284
1.1876660440
1.1889459215
1.1904252966
1.1920912989
1.1939262731
1.1959081026
1.1980108157
1.2002051320
1.2024591970
1.2047406561
1.2070168677
1.2092565206
1.2114307979
1.2135139257
1.2154838829
1.2173227061
1.2190162213
1.2205538721
1.2219282975
1.2231346223
1.2241699720
1.2250329282
1.2257229459
1.2262400616
1.2265845575
1.2267566962
1.2271116514
1.1816267670
1.1827493769
1.1829271183
1.1832771381
1.1837867808
1.1844376392
1.1852062734
1.1860640497
1.1869811613
1.1879250927
1.1888604141
1.1897520811
1.1905664364
1.1912725622
1.1918439200
1.1922603706
1.1925114022
1.1926003005
1.1925501524
1.1924117708
1.1922705407
1.1919639642
1.1870118418
1.1864408982
1.1863959454
1.1864223321
1.1865901134
1.1869424041
1.1875022311
1.1882793992
1.1892752354
1.1904850667
1.1918990152
1.1935024772
1.1952767130
1.1971988056
1.1992421614
1.2013770118
1.2035711685
1.2057918127
1.2080060810
1.2101826610
1.2122928013
1.2143110118
1.2162157517
1.2179897157
1.2196195646
1.2210956972
1.2224117941
1.2235640601
1.2245506846
1.2253712646
1.2260261827
1.2265162500
1.2268423646
1.2270052247
1.2273674556
1.1796383124
1.1808358144
1.1810147030
1.1813671009
1.1818797897
1.1825337658
1.1833039630
1.1841631316
1.1850791327
1.1860163630
1.1869379575
1.1878068284
1.1885864788
1.1892422357
1.1897427579
1.1900620225
1.1901830222
1.1901035950
1.1898467120
1.1894779493
1.1891308961
1.1887977775
1.1894760255
1.1888466491
1.1886387363
1.1884851272
1.1884924494
1.1887121145
1.1891640985
1.1898520988
1.1907717145
1.1919137866
1.1932658587
1.1948106396
1.1965279473
1.1983936876
1.2003807260
1.2024587880
1.2045954158
1.2067573114
1.2089113940
1.2110263877
1.2130735976
1.2150278246
1.2168680139
1.2185775382
1.2201439137
1.2215585143
1.2228160907
1.2239139783
1.2248514762
1.2256292438
1.2262486405
1.2267112971
1.2270187637
1.2271722003
1.2275382980
1.1777487000
1.1790089972
1.1791888901
1.1795434606
1.1800591426
1.1807156783
1.1814896124
1.1823509178
1.1832655414
1.1841969408
1.1851066163
1.1859551255
1.1867026822
1.1873098889
1.1877386176
1.1879531795
1.1879233446
1.1876305617
1.1870820585
1.1863416002
1.1855910989
1.1852382053
1.1921419682
1.1914575646
1.1909296949
1.1904901685
1.1902795488
1.1903413067
1.1906783168
1.1912789217
1.1921275986
1.1932082084
1.1945041996
1.1959967819
1.1976623717
1.1994765370
1.2014114991
1.2034365881
1.2055191705
1.2076253855
1.2097222384
1.2117783022
1.2137650013
1.2156574379
1.2174350463
1.2190818763
1.2205863008
1.2219406760
1.2231408316
1.2241852433
1.2250743378
1.2258098575
1.2263941587
1.2268297112
1.2271187341
1.2272628605
1.2276299746
1.1759936093
1.1773052329
1.1774859330
1.1778424914
1.1783605362
1.1790212005
1.1797985429
1.1806615731
1.1815757366
1.1825034663
1.1834047670
1.1842380891
1.1849604822
1.1855274825
1.1858927321
1.1860069966
1.1858178760
1.1852717776
1.1843246960
1.1829791465
1.1813893877
1.1810212103
1.1952125948
1.1944775947
1.1932787952
1.1923791537
1.1918821237
1.1917698490
1.1919976545
1.1925236863
1.1933149641
1.1943458777
1.1955951415
1.1970434765
1.1986647063
1.2004333469
1.2023214421
1.2042982038
1.2063309010
1.2083855474
1.2104290063
1.2124298286
1.2143595786
1.2161936572
1.2179119745
1.2194992328
1.2209446315
1.2222414830
1.2233866717
1.2243797917
1.2252223797
1.2259172482
1.2264677409
1.2268771615
1.2271483961
1.2272835506
1.2276494649
1.1744056147
1.1757582407
1.1759395599
1.1762975167
1.1768187300
1.1774824763
1.1782625485
1.1791277258
1.1800429464
1.1809700246
1.1818680993
1.1826943424
1.1834036538
1.1839475509
1.1842720189
1.1843127870
1.1839873392
1.1831817229
1.1817321436
1.1794122939
1.1759802870
1.1755964219
1.1991068771
1.1983251849
1.1956407587
1.1940136919
1.1931779731
1.1929106320
1.1930640014
1.1935476350
1.1943068768
1.1953069072
1.1965233244
1.1979365284
1.1995221348
1.2012522734
1.2030994693
1.2050332015
1.2070209113
1.2090287156
1.2110233947
1.2129735486
1.2148509034
1.2166311551
1.2182946613
1.2198267329
1.2212173420
1.2224606978
1.2235546803
1.2244999431
1.2252990789
1.2259559210
1.2264747584
1.2268596960
1.2271142618
1.2272410180
1.2276042098
1.1730133624
1.1743981449
1.1745796495
1.1749391978
1.1754622639
1.1761281917
1.1769107201
1.1777784709
1.1786963058
1.1796260813
1.1805270295
1.1813564847
1.1820694213
1.1826167723
1.1829420568
1.1829729573
1.1826026647
1.1816466752
1.1797373545
1.1760580127
1.1686603896
1.1682666651
1.2047028908
1.2038746021
1.1977596922
1.1950691330
1.1939521156
1.1936422834
1.1938118300
1.1943145702
1.1950814917
1.1960764786
1.1972770645
1.1986661925
1.2002248032
1.2019239215
1.2037365218
1.2056328914
1.2075809539
1.2095471312
1.2114982603
1.2134030557
1.2152334259
1.2169653473
1.2185795852
1.2200619971
1.2214032491
1.2225983601
1.2236461119
1.2245481226
1.2253079496
1.2259303624
1.2264205198
1.2267832660
1.2270227226
1.2271418747
1.2275015105
1.1718404992
1.1732503933
1.1734319674
1.1737919523
1.1743159194
1.1749831991
1.1757675979
1.1766379054
1.1775593764
1.1784946010
1.1794039859
1.1802468623
1.1809816789
1.1815656236
1.1819546654
1.1821031621
1.1819651373
1.1815031950
1.1807205399
1.1797664946
1.1793399767
1.1851007924
1.1844591193
1.1765957541
1.1846647782
1.1923861929
1.1932189292
1.1933593998
1.1934651899
1.1937176413
1.1941595209
1.1947971355
1.1956282503
1.1966482813
1.1978507915
1.1992270857
1.2007665549
1.2024416066
1.2042256993
1.2060903821
1.2080043414
1.2099344263
1.2118477002
1.2137130463
1.2155025623
1.2171924793
1.2187639151
1.2202031950
1.2215015790
1.2226547812
1.2236623615
1.2245267740
1.2252524158
1.2258448743
1.2263100711
1.2266535000
1.2268798060
1.2269923480
1.2273482243
1.1709060286
1.1723356279
1.1725166610
1.1728762845
1.1734000948
1.1740675319
1.1748526607
1.1757246898
1.1766495894
1.1775910980
1.1785113298
1.1793722681
1.1801365148
1.1807677541
1.1812325827
1.1815029636
1.1815616077
1.1814158505
1.1811280413
1.1808847620
1.1811933491
1.1838261870
1.1841727013
1.1763006033
1.1831955765
1.1887356130
1.1909498716
1.1921534847
1.1929453941
1.1936137216
1.1942995711
1.1950757903
1.1959812544
1.1970361190
1.1982489563
1.1996196272
1.2011442426
1.2028012097
1.2045622704
1.2064005908
1.2082859292
1.2101856020
1.2120670174
1.2138992669
1.2156546190
1.2173095168
1.2188453632
1.2202488562
1.2215117307
1.2226302591
1.2236046294
1.2244379752
1.2251353789
1.2257030984
1.2261476827
1.2264751618
1.2266906135
1.2267977073
1.2271501513
1.1702246487
1.1716697501
1.1718497907
1.1722081205
1.1727304464
1.1733964133
1.1741804663
1.1750523779
1.1759789832
1.1769253086
1.1778552810
1.1787335115
1.1795264014
1.1802029924
1.1807375523
1.1811126825
1.1813244699
1.1813936279
1.1813840115
1.1814336330
1.1818134726
1.1830139263
1.1832589361
1.1810344304
1.1844332735
1.1878458990
1.1899822597
1.1914605899
1.1925565683
1.1934657367
1.1943184459
1.1952007509
1.1961680034
1.1972540783
1.1984776807
1.1998454575
1.2013582293
1.2030003109
1.2047430761
1.2065600353
1.2084219520
1.2102969456
1.2121527023
1.2139585156
1.2156867951
1.2173141424
1.2188221654
1.2201978288
1.2214332090
1.2225249818
1.2234737940
1.2242832794
1.2249590279
1.2255077970
1.2259366059
1.2262518868
1.2264590437
1.2265619814
1.2269117181
1.1698068101
1.1712643896
1.1714428884
1.1717988396
1.1723180815
1.1729805377
1.1737610717
1.1746300524
1.1755551675
1.1765026409
1.1774380103
1.1783280848
1.1791422393
1.1798533733
1.1804407375
1.1808929289
1.1812119511
1.1814214134
1.1815768775
1.1817769523
1.1821700432
1.1828980165
1.1833171899
1.1831438142
1.1852489990
1.1876277833
1.1895336564
1.1910458018
1.1922614132
1.1932943089
1.1942454375
1.1951957009
1.1962043999
1.1973116233
1.1985419303
1.1999063063
1.2014088746
1.2030383758
1.2047663742
1.2065664322
1.2084100318
1.2102660897
1.2121025315
1.2138887864
1.2155973597
1.2172049508
1.2186932878
1.2200494892
1.2212658297
1.2223392236
1.2232705933
1.2240638796
1.2247249861
1.2252609831
1.2256791861
1.2259862816
1.2261878819
1.2262880430
1.2266360456
1.1696592480
1.1711268668
1.1713033918
1.1716558595
1.1721702592
1.1728268123
1.1736007819
1.1744630837
1.1753821895
1.1763253259
1.1772591968
1.1781521581
1.1789755728
1.1797047624
1.1803218804
1.1808186596
1.1811995492
1.1814879247
1.1817318403
1.1820062075
1.1824048895
1.1829874675
1.1835427957
1.1840921339
1.1856931567
1.1875712487
1.1892852790
1.1907584051
1.1920046763
1.1930879366
1.1940852131
1.1950690588
1.1960979646
1.1972141376
1.1984449989
1.1998039990
1.2012968614
1.2029153289
1.2046312623
1.2064184721
1.2082490337
1.2100920431
1.2119156123
1.2136892882
1.2153856375
1.2169814018
1.2184583455
1.2198036263
1.2210095718
1.2220731647
1.2229954159
1.2237803729
1.2244340517
1.2249636381
1.2253765614
1.2256796075
1.2258784728
1.2259772766
1.2263246157
1.1697844516
1.1712599939
1.1714341314
1.1717821545
1.1722902118
1.1729387553
1.1737034257
1.1745555759
1.1754642002
1.1763971845
1.1773219735
1.1782077413
1.1790268026
1.1797555384
1.1803772804
1.1808849273
1.1812836261
1.1815960389
1.1818660676
1.1821577761
1.1825448073
1.1830715821
1.1836710495
1.1844245837
1.1858235423
1.1874766096
1.1890726930
1.1904973773
1.1917331395
1.1928211686
1.1938260343
1.1948149500
1.1958449234
1.1969584439
1.1981838435
1.1995354685
1.2010195296
1.2026293133
1.2043371191
1.2061164330
1.2079394555
1.2097753781