<VTKFile type="UnstructuredGrid" version="0.1">
	<UnstructuredGrid>
		<Piece NumberOfPoints="13548" NumberOfCells="3387">
			<CellData>
				<DataArray type="Int32" Name="ghost" NumberOfComponents="1" Format="ascii">
1
1
1
1
1
1
1
1
1
1
1
1
1
1
1
1
1
1
1
1
1
1
1
1
1
1
1
1
1
1
1
1
1
1
1
1
1
1
1
1
1
1
1
1
1
1
1
1
1
1
1
1
1
1
1
1
1
1
0
0
0
0
0
0
0
0
0
0
0
0
0
0
0
0
0
0
0
0
1
1
0
0
0
0
0
0
0
0
0
0
0
0
0
0
0
0
0
0
0
0
0
0
0
0
0
0
0
0
0
0
0
0
0
1
1
0
0
0
0
0
0
0
0
0
0
0
0
0
0
0
0
0
0
0
0
1
1
0
0
0
0
0
0
0
0
0
0
0
0
0
0
0
0
0
0
0
0
0
0
0
0
0
0
0
0
0
0
0
0
0
1
1
0
0
0
0
0
0
0
0
0
0
0
0
0
0
0
0
0
0
0
0
1
1
0
0
0
0
0
0
0
0
0
0
0
0
0
0
0
0
0
0
0
0
0
0
0
0
0
0
0
0
0
0
0
0
0
1
1
0
0
0
0
0
0
0
0
0
0
0
0
0
0
0
0
0
0
0
0
1
1
0
0
0
0
0
0
0
0
0
0
0
0
0
0
0
0
0
0
0
0
0
0
0
0
0
0
0
0
0
0
0
0
0
1
1
0
0
0
0
0
0
0
0
0
0
0
0
0
0
0
0
0
0
0
0
1
1
0
0
0
0
0
0
0
0
0
0
0
0
0
0
0
0
0
0
0
0
0
0
0
0
0
0
0
0
0
0
0
0
0
1
1
0
0
0
0
0
0
0
0
0
0
0
0
0
0
0
0
0
0
0
0
1
1
0
0
0
0
0
0
0
0
0
0
0
0
0
0
0
0
0
0
0
0
0
0
0
0
0
0
0
0
0
0
0
0
0
1
1
0
0
0
0
0
0
0
0
0
0
0
0
0
0
0
0
0
0
0
0
1
1
0
0
0
0
0
0
0
0
0
0
0
0
0
0
0
0
0
0
0
0
0
0
0
0
0
0
0
0
0
0
0
0
0
1
1
0
0
0
0
0
0
0
0
0
0
0
0
0
0
0
0
0
0
0
0
1
1
0
0
0
0
0
0
0
0
0
0
0
0
0
0
0
0
0
0
0
0
0
0
0
0
0
0
0
0
0
0
0
0
0
1
1
0
0
0
0
0
0
0
0
0
0
0
0
0
0
0
0
0
0
0
0
1
1
0
0
0
0
0
0
0
0
0
0
0
0
0
0
0
0
0
0
0
0
0
0
0
0
0
0
0
0
0
0
0
0
0
1
1
0
0
0
0
0
0
0
0
0
0
0
0
0
0
0
0
0
0
0
0
1
1
0
0
0
0
0
0
0
0
0
0
0
0
0
0
0
0
0
0
0
0
0
0
0
0
0
0
0
0
0
0
0
0
0
1
1
0
0
0
0
0
0
0
0
0
0
0
0
0
0
0
0
0
0
0
0
1
1
0
0
0
0
0
0
0
0
0
0
0
0
0
0
0
0
0
0
0
0
0
0
0
0
0
0
0
0
0
0
0
0
0
1
1
0
0
0
0
0
0
0
0
0
0
0
0
0
0
0
0
0
0
0
0
1
1
0
0
0
0
0
0
0
0
0
0
0
0
0
0
0
0
0
0
0
0
0
0
0
0
0
0
0
0
0
0
0
0
0
1
1
0
0
0
0
0
0
0
0
0
0
0
0
0
0
0
0
0
0
0
0
1
1
0
0
0
0
0
0
0
0
0
0
0
0
0
0
0
0
0
0
0
0
0
0
0
0
0
0
0
0
0
0
0
0
0
1
1
0
0
0
0
0
0
0
0
0
0
0
0
0
0
0
0
0
0
0
0
1
1
0
0
0
0
0
0
0
0
0
0
0
0
0
0
0
0
0
0
0
0
0
0
0
0
0
0
0
0
0
0
0
0
0
1
1
0
0
0
0
0
0
0
0
0
0
0
0
0
0
0
0
0
0
0
0
1
1
0
0
0
0
0
0
0
0
0
0
0
0
0
0
0
0
0
0
0
0
0
0
0
0
0
0
0
0
0
0
0
0
0
1
1
0
0
0
0
0
0
0
0
0
0
0
0
0
0
0
0
0
0
0
0
1
1
0
0
0
0
0
0
0
0
0
0
0
0
0
0
0
0
0
0
0
0
0
0
0
0
0
0
0
0
0
0
0
0
0
1
1
0
0
0
0
0
0
0
0
0
0
0
0
0
0
0
0
0
0
0
0
1
1
0
0
0
0
0
0
0
0
0
0
0
0
0
0
0
0
0
0
0
0
0
0
0
0
0
0
0
0
0
0
0
0
0
1
1
0
0
0
0
0
0
0
0
0
0
0
0
0
0
0
0
0
0
0
0
1
1
0
0
0
0
0
0
0
0
0
0
0
0
0
0
0
0
0
0
0
0
0
0
0
0
0
0
0
0
0
0
0
0
0
1
1
0
0
0
0
0
0
0
0
0
0
0
0
0
0
0
0
0
0
0
0
1
1
0
0
0
0
0
0
0
0
0
0
0
0
0
0
0
0
0
0
0
0
0
0
0
0
0
0
0
0
0
0
0
0
0
1
1
0
0
0
0
0
0
0
0
0
0
0
0
0
0
0
0
0
0
0
0
1
1
0
0
0
0
0
0
0
0
0
0
0
0
0
0
0
0
0
0
0
0
0
0
0
0
0
0
0
0
0
0
0
0
0
1
1
0
0
0
0
0
0
0
0
0
0
0
0
0
0
0
0
0
0
0
0
1
1
0
0
0
0
0
0
0
0
0
0
0
0
0
0
0
0
0
0
0
0
0
0
0
0
0
0
0
0
0
0
0
0
0
1
1
0
0
0
0
0
0
0
0
0
0
0
0
0
0
0
0
0
0
0
0
1
1
0
0
0
0
0
0
0
0
0
0
0
0
0
0
0
0
0
0
0
0
0
0
0
0
0
0
0
0
0
0
0
0
0
1
1
0
0
0
0
0
0
0
0
0
0
0
0
0
0
0
0
0
0
0
0
1
1
0
0
0
0
0
0
0
0
0
0
0
0
0
0
0
0
0
0
0
0
0
0
0
0
0
0
0
0
0
0
0
0
0
1
1
0
0
0
0
0
0
0
0
0
0
0
0
0
0
0
0
0
0
0
0
1
1
0
0
0
0
0
0
0
0
0
0
0
0
0
0
0
0
0
0
0
0
0
0
0
0
0
0
0
0
0
0
0
0
0
1
1
0
0
0
0
0
0
0
0
0
0
0
0
0
0
0
0
0
0
0
0
0
1
1
0
0
0
0
0
0
0
0
0
0
0
0
0
0
0
0
0
0
0
0
0
0
0
0
0
0
0
0
0
0
0
0
0
0
1
1
0
0
0
0
0
0
0
0
0
0
0
0
0
0
0
0
0
0
0
0
0
0
0
0
0
0
0
0
0
0
0
0
0
0
0
0
0
0
0
0
0
0
0
0
0
0
0
0
0
0
0
0
0
0
0
0
0
1
1
0
0
0
0
0
0
0
0
0
0
0
0
0
0
0
0
0
0
0
0
0
0
0
0
0
0
0
0
0
0
0
0
0
0
0
0
0
0
0
0
0
0
0
0
0
0
0
0
0
0
0
0
0
0
0
0
0
1
1
0
0
0
0
0
0
0
0
0
0
0
0
0
0
0
0
0
0
0
0
0
0
0
0
0
0
0
0
0
0
0
0
0
0
0
0
0
0
0
0
0
0
0
0
0
0
0
0
0
0
0
0
0
0
0
0
0
1
1
0
0
0
0
0
0
0
0
0
0
0
0
0
0
0
0
0
0
0
0
0
0
0
0
0
0
0
0
0
0
0
0
0
0
0
0
0
0
0
0
0
0
0
0
0
0
0
0
0
0
0
0
0
0
0
0
0
1
1
0
0
0
0
0
0
0
0
0
0
0
0
0
0
0
0
0
0
0
0
0
0
0
0
0
0
0
0
0
0
0
0
0
0
0
0
0
0
0
0
0
0
0
0
0
0
0
0
0
0
0
0
0
0
0
0
0
1
1
0
0
0
0
0
0
0
0
0
0
0
0
0
0
0
0
0
0
0
0
0
0
0
0
0
0
0
0
0
0
0
0
0
0
0
0
0
0
0
0
0
0
0
0
0
0
0
0
0
0
0
0
0
0
0
0
0
1
1
0
0
0
0
0
0
0
0
0
0
0
0
0
0
0
0
0
0
0
0
0
0
0
0
0
0
0
0
0
0
0
0
0
0
0
0
0
0
0
0
0
0
0
0
0
0
0
0
0
0
0
0
0
0
0
0
0
1
1
0
0
0
0
0
0
0
0
0
0
0
0
0
0
0
0
0
0
0
0
0
0
0
0
0
0
0
0
0
0
0
0
0
0
0
0
0
0
0
0
0
0
0
0
0
0
0
0
0
0
0
0
0
0
0
0
0
1
1
0
0
0
0
0
0
0
0
0
0
0
0
0
0
0
0
0
0
0
0
0
0
0
0
0
0
0
0
0
0
0
0
0
0
0
0
0
0
0
0
0
0
0
0
0
0
0
0
0
0
0
0
0
0
0
0
0
1
1
0
0
0
0
0
0
0
0
0
0
0
0
0
0
0
0
0
0
0
0
0
0
0
0
0
0
0
0
0
0
0
0
0
0
0
0
0
0
0
0
0
0
0
0
0
0
0
0
0
0
0
0
0
0
0
0
0
1
1
0
0
0
0
0
0
0
0
0
0
0
0
0
0
0
0
0
0
0
0
0
1
1
0
0
0
0
0
0
0
0
0
0
0
0
0
0
0
0
0
0
0
0
0
0
0
0
0
0
0
0
0
0
0
0
0
0
1
1
0
0
0
0
0
0
0
0
0
0
0
0
0
0
0
0
0
0
0
0
1
1
0
0
0
0
0
0
0
0
0
0
0
0
0
0
0
0
0
0
0
0
0
0
0
0
0
0
0
0
0
0
0
0
0
1
1
0
0
0
0
0
0
0
0
0
0
0
0
0
0
0
0
0
0
0
0
1
1
0
0
0
0
0
0
0
0
0
0
0
0
0
0
0
0
0
0
0
0
0
0
0
0
0
0
0
0
0
0
0
0
0
1
1
0
0
0
0
0
0
0
0
0
0
0
0
0
0
0
0
0
0
0
0
1
1
0
0
0
0
0
0
0
0
0
0
0
0
0
0
0
0
0
0
0
0
0
0
0
0
0
0
0
0
0
0
0
0
0
1
1
0
0
0
0
0
0
0
0
0
0
0
0
0
0
0
0
0
0
0
0
1
1
0
0
0
0
0
0
0
0
0
0
0
0
0
0
0
0
0
0
0
0
0
0
0
0
0
0
0
0
0
0
0
0
0
1
1
0
0
0
0
0
0
0
0
0
0
0
0
0
0
0
0
0
0
0
0
1
1
0
0
0
0
0
0
0
0
0
0
0
0
0
0
0
0
0
0
0
0
0
0
0
0
0
0
0
0
0
0
0
0
0
1
1
0
0
0
0
0
0
0
0
0
0
0
0
0
0
0
0
0
0
0
0
1
1
0
0
0
0
0
0
0
0
0
0
0
0
0
0
0
0
0
0
0
0
0
0
0
0
0
0
0
0
0
0
0
0
0
1
1
0
0
0
0
0
0
0
0
0
0
0
0
0
0
0
0
0
0
0
0
1
1
0
0
0
0
0
0
0
0
0
0
0
0
0
0
0
0
0
0
0
0
0
0
0
0
0
0
0
0
0
0
0
0
0
1
1
0
0
0
0
0
0
0
0
0
0
0
0
0
0
0
0
0
0
0
0
1
1
0
0
0
0
0
0
0
0
0
0
0
0
0
0
0
0
0
0
0
0
0
0
0
0
0
0
0
0
0
0
0
0
0
1
1
0
0
0
0
0
0
0
0
0
0
0
0
0
0
0
0
0
0
0
0
1
1
0
0
0
0
0
0
0
0
0
0
0
0
0
0
0
0
0
0
0
0
0
0
0
0
0
0
0
0
0
0
0
0
0
1
1
0
0
0
0
0
0
0
0
0
0
0
0
0
0
0
0
0
0
0
0
1
1
0
0
0
0
0
0
0
0
0
0
0
0
0
0
0
0
0
0
0
0
0
0
0
0
0
0
0
0
0
0
0
0
0
1
1
0
0
0
0
0
0
0
0
0
0
0
0
0
0
0
0
0
0
0
0
1
1
0
0
0
0
0
0
0
0
0
0
0
0
0
0
0
0
0
0
0
0
0
0
0
0
0
0
0
0
0
0
0
0
0
1
1
0
0
0
0
0
0
0
0
0
0
0
0
0
0
0
0
0
0
0
0
1
1
0
0
0
0
0
0
0
0
0
0
0
0
0
0
0
0
0
0
0
0
0
0
0
0
0
0
0
0
0
0
0
0
0
1
1
0
0
0
0
0
0
0
0
0
0
0
0
0
0
0
0
0
0
0
0
1
1
0
0
0
0
0
0
0
0
0
0
0
0
0
0
0
0
0
0
0
0
0
0
0
0
0
0
0
0
0
0
0
0
0
1
1
0
0
0
0
0
0
0
0
0
0
0
0
0
0
0
0
0
0
0
0
1
1
0
0
0
0
0
0
0
0
0
0
0
0
0
0
0
0
0
0
0
0
0
0
0
0
0
0
0
0
0
0
0
0
0
1
1
0
0
0
0
0
0
0
0
0
0
0
0
0
0
0
0
0
0
0
0
1
1
0
0
0
0
0
0
0
0
0
0
0
0
0
0
0
0
0
0
0
0
0
0
0
0
0
0
0
0
0
0
0
0
0
1
1
0
0
0
0
0
0
0
0
0
0
0
0
0
0
0
0
0
0
0
0
1
1
0
0
0
0
0
0
0
0
0
0
0
0
0
0
0
0
0
0
0
0
0
0
0
0
0
0
0
0
0
0
0
0
0
1
1
0
0
0
0
0
0
0
0
0
0
0
0
0
0
0
0
0
0
0
0
1
1
0
0
0
0
0
0
0
0
0
0
0
0
0
0
0
0
0
0
0
0
0
0
0
0
0
0
0
0
0
0
0
0
0
1
1
0
0
0
0
0
0
0
0
0
0
0
0
0
0
0
0
0
0
0
0
1
1
0
0
0
0
0
0
0
0
0
0
0
0
0
0
0
0
0
0
0
0
0
0
0
0
0
0
0
0
0
0
0
0
0
1
1
0
0
0
0
0
0
0
0
0
0
0
0
0
0
0
0
0
0
0
0
1
1
0
0
0
0
0
0
0
0
0
0
0
0
0
0
0
0
0
0
0
0
0
0
0
0
0
0
0
0
0
0
0
0
0
1
1
0
0
0
0
0
0
0
0
0
0
0
0
0
0
0
0
0
0
0
0
1
1
0
0
0
0
0
0
0
0
0
0
0
0
0
0
0
0
0
0
0
0
0
0
0
0
0
0
0
0
0
0
0
0
0
1
1
0
0
0
0
0
0
0
0
0
0
0
0
0
0
0
0
0
0
0
0
1
1
0
0
0
0
0
0
0
0
0
0
0
0
0
0
0
0
0
0
0
0
0
0
0
0
0
0
0
0
0
0
0
0
0
1
1
1
1
1
1
1
1
1
1
1
1
1
1
1
1
1
1
1
1
1
1
1
1
1
1
1
1
1
1
1
1
1
1
1
1
1
1
1
1
1
1
1
1
1
1
1
1
1
1
1
1
1
1
1
1
1
1
				</DataArray>
				<DataArray type="Float64" Name="h" NumberOfComponents="1" Format="ascii">
1.2593842202
1.2569908980
1.2572796797
1.2578380414
1.2586448731
1.2596705256
1.2608781935
1.2622259723
1.2636684314
1.2651588033
1.2666514169
1.2681037291
1.2694782506
1.2707438859
1.2718767832
1.2728603854
1.2736844901
1.2743443026
1.2748388604
1.2751689549
1.2753360068
1.2753360068
1.0929780153
1.0923826938
1.0930010527
1.0942669813
1.0962372733
1.0989896586
1.1026128822
1.1071928715
1.1127961054
1.1194500827
1.1271160293
1.1356779110
1.1449314183
1.1545931393
1.1643298324
1.1737995335
1.1826968257
1.1907909126
1.1979439622
1.2041104669
1.2093213236
1.2136589227
1.2172330290
1.2201606494
1.2225517822
1.2245022461
1.2260907296
1.2273790243
1.2284145677
1.2292328849
1.2298600489
1.2303150803
1.2306111483
1.2307564751
1.2307564751
1.2569908980
1.2546889133
1.2550263746
1.2556805551
1.2566267714
1.2578301334
1.2592471253
1.2608279643
1.2625185911
1.2642632967
1.2660076726
1.2677011656
1.2692994372
1.2707660839
1.2720737028
1.2732039477
1.2741464339
1.2748974270
1.2754577628
1.2758302344
1.2760179422
1.2753360068
1.0923826938
1.0918724959
1.0925566439
1.0939543440
1.0961216518
1.0991335754
1.1030725191
1.1080143914
1.1140049090
1.1210435941
1.1290582110
1.1378939578
1.1473111759
1.1570023667
1.1666281767
1.1758605991
1.1844254396
1.1921327051
1.1988859699
1.2046743533
1.2095524644
1.2136149737
1.2169743466
1.2197435271
1.2220245635
1.2239038042
1.2254505137
1.2267180325
1.2277467492
1.2285665895
1.2291993725
1.2296610289
1.2299625926
1.2301109475
1.2307564751
1.2571631055
1.2548520119
1.2551853399
1.2558313790
1.2567655723
1.2579532273
1.2593511162
1.2609098531
1.2625758960
1.2642941741
1.2660110195
1.2676766872
1.2692476687
1.2706883593
1.2719720704
1.2730810496
1.2740053654
1.2747415948
1.2752907632
1.2756557610
1.2758397261
1.2751916370
1.0922403295
1.0917510053
1.0924417330
1.0938518024
1.0960354881
1.0990650435
1.1030197099
1.1079695189
1.1139566119
1.1209752939
1.1289508203
1.1377293500
1.1470756921
1.1566902830
1.1662435698
1.1754169052
1.1839428327
1.1916342943
1.1983939288
1.2042071432
1.2091234866
1.2132323895
1.2166417103
1.2194608414
1.2217893860
1.2237121767
1.2252976899
1.2265989575
1.2276563242
1.2284998075
1.2291513501
1.2296269929
1.2299378524
1.2300908610
1.2307372902
1.2574880410
1.2551588587
1.2554841072
1.2561142323
1.2570249309
1.2581819042
1.2595424971
1.2610581094
1.2626762195
1.2643430085
1.2660062575
1.2676177965
1.2691357290
1.2705259962
1.2717632891
1.2728309991
1.2737200651
1.2744276609
1.2749551748
1.2753056824
1.2754823927
1.2749007546
1.0919570753
1.0915086122
1.0922124983
1.0936472851
1.0958636869
1.0989289237
1.1029146091
1.1078813747
1.1138623159
1.1208429513
1.1287438719
1.1374121253
1.1466211609
1.1560867508
1.1654979746
1.1745542490
1.1830014575
1.1906586269
1.1974272066
1.2032858959
1.2082746356
1.2124727314
1.2159790133
1.2188957865
1.2213176801
1.2233264117
1.2249887651
1.2263570407
1.2274714241
1.2283620438
1.2290510413
1.2295546419
1.2298840961
1.2300464178
1.2306940670
1.2579322336
1.2555760413
1.2558895696
1.2564966143
1.2573732598
1.2584858063
1.2597924609
1.2612457940
1.2627947888
1.2643874575
1.2659736813
1.2675075574
1.2689494934
1.2702676270
1.2714385979
1.2724474042
1.2732862011
1.2739529907
1.2744496606
1.2747795375
1.2749459228
1.2744609275
1.0915363103
1.0911471735
1.0918707535
1.0933425279
1.0956080260
1.0987262895
1.1027581490
1.1077513939
1.1137251121
1.1206525316
1.1284480792
1.1369595787
1.1459724036
1.1552233752
1.1644279145
1.1733112183
1.1816386502
1.1892389128
1.1960129095
1.2019307661
1.2070192281
1.2113432273
1.2149884674
1.2180467044
1.2206049704
1.2227400842
1.2245160466
1.2259838321
1.2271831821
1.2281442465
1.2288893485
1.2294348984
1.2297922879
1.2299686095
1.2306165837
1.2584482013
1.2560563867
1.2563550028
1.2569326899
1.2577660619
1.2588222313
1.2600605594
1.2614351621
1.2628969823
1.2643963858
1.2658859244
1.2673225464
1.2686695306
1.2698977267
1.2709861603
1.2719217802
1.2726982046
1.2733144202
1.2737728981
1.2740772482
1.2742308675
1.2738693701
1.0909819589
1.0906685870
1.0914184024
1.0929391740
1.0952695445
1.0984579717
1.1025514006
1.1075809673
1.1135484667
1.1204124459
1.1280783828
1.1363958725
1.1451640438
1.1541447600
1.1630854858
1.1717433563
1.1799088372
1.1874243056
1.1941919313
1.2001728311
1.2053783864
1.2098559065
1.2136744367
1.2169119118
1.2196450815
1.2219438540
1.2238680872
1.2254665712
1.2267780953
1.2278325428
1.2286522577
1.2292537343
1.2296484290
1.2298434648
1.2304889543
1.2589776477
1.2565423826
1.2568234762
1.2573666792
1.2581492828
1.2591394286
1.2602979191
1.2615807685
1.2629412884
1.2643326465
1.2657105287
1.2670351875
1.2682731872
1.2693984461
1.2703926576
1.2712449247
1.2719504582
1.2725092945
1.2729245059
1.2731999734
1.2733391661
1.2731240244
1.0902974082
1.0900735972
1.0908559102
1.0924373524
1.0948479600
1.0981234117
1.1022939574
1.1073711697
1.1133367321
1.1201321663
1.1276530187
1.1357505430
1.1442382255
1.1529055382
1.1615351783
1.1699203920
1.1778815174
1.1852788152
1.1920186959
1.1980545693
1.2033819607
1.2080287048
1.2120445045
1.2154905970
1.2184307824
1.2209258483
1.2230298285
1.2247881356
1.2262377933
1.2274078767
1.2283203843
1.2289916373
1.2294329810
1.2296514467
1.2302889308
1.2594558050
1.2569707241
1.2572323809
1.2577373474
1.2584637389
1.2593809372
1.2604514544
1.2616335184
1.2628831543
1.2641566855
1.2654132728
1.2666167764
1.2677372966
1.2687520063
1.2696453847
1.2704087459
1.2710388961
1.2715368853
1.2719063274
1.2721513053
1.2722752998
1.2722250037
1.0894838124
1.0893603934
1.0901811062
1.0918343679
1.0943401760
1.0977194362
1.1019833680
1.1071215470
1.1130934856
1.1198220835
1.1271922185
1.1350560406
1.1432418329
1.1515667246
1.1598496093
1.1679222130
1.1756379074
1.1828789620
1.1895599974
1.1956296569
1.2010690769
1.2058863981
1.2101105255
1.2137837717
1.2169545214
1.2196721083
1.2219827555
1.2239269303
1.2255387087
1.2268454930
1.2278683100
1.2286228539
1.2291200367
1.2293665923
1.2299869438
1.2598156577
1.2572766580
1.2575177467
1.2579822676
1.2586492952
1.2594896422
1.2604677628
1.2615443568
1.2626784245
1.2638296889
1.2649609913
1.2660399498
1.2670402866
1.2679424506
1.2687336694
1.2694073820
1.2699618698
1.2703990554
1.2707229466
1.2709376899
1.2710466658
1.2711752597
1.0885379838
1.0885228830
1.0893876267
1.0911234873
1.0937391844
1.0972392072
1.1016139165
1.1068291508
1.1128208552
1.1194922567
1.1267167009
1.1343465880
1.1422240688
1.1501924576
1.1581061803
1.1658351844
1.1732677451
1.1803115623
1.1868939282
1.1929631346
1.1984891873
1.2034622598
1.2078905002
1.2117960775
1.2152099645
1.2181677502
1.2207056402
1.2228572252
1.2246520514
1.2261146117
1.2272640190
1.2281146395
1.2286764581
1.2289555888
1.2295451323
1.2599925038
1.2573985314
1.2576187576
1.2580422666
1.2586492044
1.2594119670
1.2602971268
1.2612680363
1.2622868332
1.2633167621
1.2643244128
1.2652811640
1.2661642969
1.2669574128
1.2676503149
1.2682383587
1.2687210670
1.2691009900
1.2693822869
1.2695689420
1.2696640542
1.2699812661
1.0874508717
1.0875493607
1.0884636714
1.0902928487
1.0930332510
1.0966716495
1.1011762150
1.1064880388
1.1125187166
1.1191511211
1.1262463551
1.1336559158
1.1412337686
1.1488471942
1.1563831372
1.1637482152
1.1708655432
1.1776707575
1.1841081098
1.1901308805
1.1957028350
1.2007997201
1.2054107694
1.2095381173
1.2131941492
1.2163987522
1.2191758551
1.2215499719
1.2235441595
1.2251783675
1.2264685007
1.2274266124
1.2280610541
1.2283768686
1.2289164957
1.2599287251
1.2572824159
1.2574823368
1.2578659329
1.2584144960
1.2591021018
1.2598975404
1.2607669016
1.2616755092
1.2625901258
1.2634810258
1.2643232217
1.2650973667
1.2657899799
1.2663931664
1.2669038953
1.2673226052
1.2676521314
1.2678964372
1.2680590103
1.2681423878
1.2686539077
1.0862060587
1.0864211693
1.0873907767
1.0893244330
1.0922051713
1.0960009979
1.1006570010
1.1060890840
1.1121843115
1.1188048364
1.1257987625
1.1330150614
1.1403169138
1.1475918816
1.1547556206
1.1617480462
1.1685258923
1.1750535167
1.1812962500
1.1872174951
1.1927808225
1.1979528717
1.2027074852
1.2070284727
1.2109096545
1.2143539577
1.2173710272
1.2199740103
1.2221772321
1.2239941079
1.2254356792
1.2265103909
1.2272240257
1.2275799511
1.2280444483
1.2595772467
1.2568852734
1.2570662689
1.2574126506
1.2579068801
1.2585247348
1.2592372272
1.2600131588
1.2608209667
1.2616308045
1.2624164504
1.2631563193
1.2638341647
1.2644391196
1.2649652627
1.2654108216
1.2657767618
1.2660657785
1.2662811767
1.2664254723
1.2665002132
1.2672080605
1.0847775363
1.0851105877
1.0861419053
1.0881925359
1.0912311920
1.0952062116
1.1000390048
1.1056203037
1.1118127913
1.1184577188
1.1253892832
1.1324520624
1.1395152317
1.1464822487
1.1532929286
1.1599161134
1.1663393835
1.1725560877
1.1785545017
1.1843137664
1.1898032812
1.1949867554
1.1998280797
1.2042960635
1.2083674220
1.2120279809
1.2152717164
1.2180983320
1.2205111071
1.2225146816
1.2241132684
1.2253101103
1.2261072432
1.2265056035
1.2268634519
1.2589044851
1.2561775385
1.2563417416
1.2566550607
1.2571010893
1.2576572401
1.2582966448
1.2589906696
1.2597106698
1.2604299472
1.2611255059
1.2617788613
1.2623765520
1.2629100064
1.2633749485
1.2637705124
1.2640977842
1.2643588304
1.2645557128
1.2646893073
1.2647595152
1.2656623894
1.0831276308
1.0835788171
1.0846797551
1.0868625319
1.0900803099
1.0942607787
1.0993012085
1.1050674479
1.1113979976
1.1181129625
1.1250316175
1.1319918667
1.1388655826
1.1455675409
1.1520562689
1.1583254233
1.1643892987
1.1702691471
1.1759776777
1.1815129401
1.1868567817
1.1919764488
1.1968317899
1.2013819250
1.2055895428
1.2094245537
1.2128649340
1.2158954874
1.2185063637
1.2206911626
1.2224451231
1.2237644569
1.2246460634
1.2250875415
1.2253015125
1.2578927431
1.2551451424
1.2552953366
1.2555809869
1.2559867104
1.2564913922
1.2570700615
1.2576963784
1.2583443000
1.2589899292
1.2596131434
1.2601982184
1.2607341670
1.2612144358
1.2616361365
1.2619990314
1.2623039681
1.2625518762
1.2627428563
1.2628752078
1.2629461478
1.2640397420
1.0812047942
1.0817738227
1.0829550809
1.0852898893
1.0887139466
1.0931329063
1.0984194125
1.1044147975
1.1109332455
1.1177731897
1.1247380476
1.1316563558
1.1383992182
1.1448888548
1.1510969889
1.1570371206
1.1627473957
1.1682731942
1.1736530782
1.1789058957
1.1840298085
1.1890028376
1.1937875931
1.1983389417
1.2026104871
1.2065590010
1.2101474873
1.2133454113
1.2161283432
1.2184768557
1.2203751274
1.2218104330
1.2227730009
1.2232560685
1.2232848791
1.2565407492
1.2537896907
1.2539291751
1.2541935172
1.2545681764
1.2550332454
1.2555653099
1.2561399285
1.2567332273
1.2573236713
1.2578936035
1.2584297142
1.2589232282
1.2593694397
1.2597667426
1.2601154241
1.2604158854
1.2606674697
1.2608674795
1.2610103172
1.2610888241
1.2623660847
1.0789398090
1.0796265582
1.0809038755
1.0834186401
1.0870856413
1.0917861630
1.0973675900
1.1036468104
1.1104130915
1.1174422774
1.1245205779
1.1314654453
1.1381429361
1.1444791846
1.1504558166
1.1560999505
1.1614711797
1.1666361844
1.1716564070
1.1765758819
1.1814090040
1.1861492994
1.1907700756
1.1952293908
1.1994767120
1.2034599166
1.2071293935
1.2104401068
1.2133526058
1.2158331738
1.2178532696
1.2193895164
1.2204239759
1.2209444212
1.2207456992
1.2548637906
1.2521283349
1.2522607677
1.2525108121
1.2528645173
1.2533028178
1.2538033985
1.2543431990
1.2548999723
1.2554540199
1.2559897013
1.2564957907
1.2569655498
1.2573961215
1.2577873286
1.2581401949
1.2584547902
1.2587286423
1.2589553688
1.2591236267
1.2592190472
1.2606703457
1.0762412627
1.0770464914
1.0784445677
1.0811805911
1.0851419057
1.0901817015
1.0961205407
1.1027505660
1.1098358283
1.1171271535
1.1243923742
1.1314373030
1.1381194345
1.1443640893
1.1501619994
1.1555497008
1.1606032496
1.1654108965
1.1700491852
1.1745858788
1.1790616104
1.1834887359
1.1878539487
1.1921233044
1.1962485627
1.2001737153
1.2038404818
1.2071917529
1.2101740940
1.2127394176
1.2148456488
1.2164576030
1.2175480157
1.2180982684
1.2176325480
1.2528933387
1.2501932564
1.2503224903
1.2505655671
1.2509088062
1.2513335264
1.2518179427
1.2523397439
1.2528776579
1.2534132116
1.2539322861
1.2544254263
1.2548878618
1.2553188093
1.2557200332
1.2560940138
1.2564412041
1.2567576295
1.2570325204
1.2572462938
1.2573725540
1.2589858184
1.0729890356
1.0739151616
1.0754747042
1.0784952694
1.0828249027
1.0882820790
1.0946579341
1.1017199207
1.1092048994
1.1168393513
1.1243692862
1.1315875538
1.1383461705
1.1445622702
1.1502339461
1.1554088704
1.1601668756
1.1646152020
1.1688570540
1.1729799291
1.1770463135
1.1810889341
1.1851118505
1.1890942179
1.1929954410
1.1967612045
1.2003293733
1.2036344937
1.2066116123
1.2091995469
1.2113430391
1.2129948440
1.2141178431
1.2146864999
1.2139219672
1.2506752073
1.2480297623
1.2481596681
1.2484030745
1.2487461963
1.2491701984
1.2496531580
1.2501727710
1.2507079774
1.2512408168
1.2517581278
1.2522518999
1.2527193487
1.2531622391
1.2535852656
1.2539938485
1.2543905893
1.2547714949
1.2551215221
1.2554098436
1.2555899252
1.2573507382
1.0690221356
1.0700740026
1.0718655423
1.0752710259
1.0800768721
1.0860578937
1.0929722657
1.1005610611
1.1085327264
1.1165975909
1.1244711777
1.1319346356
1.1388366364
1.1450868934
1.1506768498
1.1556659910
1.1601525071
1.1642561555
1.1680981321
1.1717858142
1.1754021660
1.1790008115
1.1826052643
1.1862110977
1.1897897713
1.1932937116
1.1966620376
1.1998255512
1.2027114907
1.2052482506
1.2073690822
1.2090155755
1.2101411080
1.2107132804
1.2096308451
1.2482679114
1.2456946900
1.2458289774
1.2460796246
1.2464323262
1.2468674928
1.2473623126
1.2478936442
1.2484397566
1.2489823564
1.2495085474
1.2500113438
1.2504899640
1.2509493899
1.2513987688
1.2518489972
1.2523083207
1.2527765595
1.2532368656
1.2536447379
1.2539205214
1.2558121759
1.0641186546
1.0653045370
1.0674571294
1.0714096674
1.0768473526
1.0834916130
1.0910772230
1.0992999541
1.1078512077
1.1164257190
1.1247264476
1.1325022293
1.1395949450
1.1459184262
1.1514688172
1.1563087500
1.1605483210
1.1643216279
1.1677660120
1.1710063731
1.1741449318
1.1772553258
1.1803806705
1.1835344962
1.1867032748
1.1898502607
1.1929205764
1.1958461593
1.1985509575
1.2009567596
1.2029882894
1.2045780732
1.2056713347
1.2062295714
1.2048269079
1.2457406226
1.2432544918
1.2433965407
1.2436606267
1.2440314901
1.2444881488
1.2450060900
1.2455603991
1.2461276575
1.2466882121
1.2472285127
1.2477419281
1.2482294861
1.2487000305
1.2491690950
1.2496568361
1.2501832505
1.2507601870
1.2513772617
1.2519783757
1.2524328707
1.2544364089
1.0579568597
1.0592905540
1.0620537452
1.0668235170
1.0731237178
1.0806102568
1.0890113721
1.0979912464
1.1072173286
1.1163690674
1.1251424491
1.1332837115
1.1406162939
1.1470528169
1.1525930395
1.1573085625
1.1613209624
1.1647777309
1.1678307975
1.1706210378
1.1732677613
1.1758626441
1.1784671833
1.1811128396
1.1838024768
1.1865129174
1.1891991330
1.1917987212
1.1942370544
1.1964337785
1.1983089756
1.1997892207
1.2008138551
1.2013397247
1.1996331162
1.2431701453
1.2407823708
1.2409350640
1.2412177603
1.2416138163
1.2421002152
1.2426499017
1.2432351777
1.2438297773
1.2444114183
1.2449646113
1.2454819090
1.2459653561
1.2464277636
1.2468928573
1.2473948457
1.2479749897
1.2486728871
1.2495058235
1.2504243105
1.2512332989
1.2533274733
1.0500302001
1.0515341451
1.0554129101
1.0614406997
1.0689407394
1.0775104836
1.0868731414
1.0967047418
1.1066823000
1.1164747928
1.1257692862
1.1343049732
1.1419004659
1.1484688204
1.1540153606
1.1586212802
1.1624201231
1.1655725124
1.1682442394
1.1705902799
1.1727445964
1.1748143634
1.1768772986
1.1789815060
1.1811461707
1.1833629717
1.1855993194
1.1878021031
1.1899023911
1.1918221531
1.1934810738
1.1948034595
1.1957256573
1.1962018276
1.1942250885
1.2406382690
1.2383558302
1.2385214007
1.2388265739
1.2392529331
1.2397748210
1.2403618129
1.2409823777
1.2416061041
1.2422065135
1.2427643626
1.2432693703
1.2437225830
1.2441393406
1.2445518458
1.2450126851
1.2455968969
1.2463986008
1.2475101098
1.2489537393
1.2505091535
1.2526702091
1.0394673206
1.0411748593
1.0472464303
1.0552726568
1.0644028833
1.0743480664
1.0848299190
1.0955987272
1.1063667255
1.1168175088
1.1266407795
1.1355735523
1.1434328704
1.1501338744
1.1556887695
1.1601894720
1.1637822196
1.1666410196
1.1689447239
1.1708606593
1.1725349969
1.1740876224
1.1756097646
1.1771640121
1.1787846450
1.1804781486
1.1822255947
1.1839855567
1.1856980962
1.1872913377
1.1886885150
1.1898153254
1.1906081537
1.1910206319
1.1888210154
1.2382284478
1.2360535633
1.2362334680
1.2365634720
1.2370230695
1.2375834467
1.2382100607
1.2388665215
1.2395168826
1.2401285987
1.2406761996
1.2411433311
1.2415259617
1.2418373318
1.2421140202
1.2424265623
1.2428946325
1.2437046747
1.2451171191
1.2474126682
1.2506238938
1.2528249819
1.0246201982
1.0265875314
1.0372137718
1.0484330758
1.0598603210
1.0714297996
1.0831218193
1.0948414230
1.1063814076
1.1174613419
1.1277832820
1.1370859767
1.1451864525
1.1520026835
1.1575544261
1.1619451517
1.1653344765
1.1679098632
1.1698624964
1.1713704347
1.1725897159
1.1736501388
1.1746535193
1.1756742822
1.1767597774
1.1779301668
1.1791801258
1.1804809420
1.1817836623
1.1830252642
1.1841355881
1.1850447595
1.1856918526
1.1860319344
1.1836637826
1.2360220414
1.2339519144
1.2341467333
1.2345022595
1.2349956964
1.2355947071
1.2362600427
1.2369495549
1.2376203953
1.2382318806
1.2387492003
1.2391452382
1.2394039013
1.2395263219
1.2395400748
1.2395188487
1.2396202916
1.2401545796
1.2417009754
1.2452640393
1.2522949249
1.2545043606
1.0012432882
1.0036260526
1.0245517590
1.0413488089
1.0558057577
1.0691562861
1.0820271397
1.0946113910
1.1068302129
1.1184555983
1.1292059977
1.1388218344
1.1471190037
1.1540172997
1.1595436435
1.1638132138
1.1669991809
1.1693023120
1.1709253490
1.1720555644
1.1728566847
1.1734657723
1.1739923442
1.1745198390
1.1751061914
1.1757833365
1.1765584221
1.1774151815
1.1783162213
1.1792086592
1.1800307086
1.1807188802
1.1812167699
1.1814823049
1.1789999075
1.2340949535
1.2321217346
1.2323311076
1.2327111210
1.2332366356
1.2338716411
1.2345718564
1.2352887530
1.2359714545
1.2365691612
1.2370343263
1.2373232341
1.2373976893
1.2372295471
1.2368083984
1.2361645456
1.2354292333
1.2349878223
1.2358819794
1.2408579760
1.2569294616
1.2591059030
0.9672265794
0.9699372003
1.0119514101
1.0361082406
1.0534706527
1.0682024047
1.0818995291
1.0950842300
1.1077884424
1.1198160479
1.1308872608
1.1407348975
1.1491680006
1.1561047913
1.1615775982
1.1657125499
1.1686959765
1.1707414590
1.1720624125
1.1728538698
1.1732852817
1.1734985776
1.1736083072
1.1737041624
1.1738519959
1.1740931230
1.1744452186
1.1749030752
1.1754400942
1.1760133666
1.1765698003
1.1770529375
1.1774116592
1.1776074244
1.1750587577
1.2325136377
1.2306246011
1.2308472139
1.2312489863
1.2318025652
1.2324683922
1.2331971983
1.2339339206
1.2346190914
1.2351904620
1.2355849624
1.2357366348
1.2355736152
1.2350139435
1.2339542751
1.2322511472
1.2296825404
1.2258476038
1.2198880492
1.2096243750
1.1885927121
1.1200946771
1.0204307098
1.0277392424
1.0412043158
1.0261357627
1.0329823695
1.0443646189
1.0569828020
1.0700319488
1.0832421142
1.0964081052
1.1092679379
1.1214984481
1.1327573448
1.1427427658
1.1512448221
1.1581744065
1.1635664185
1.1675564889
1.1703432339
1.1721522272
1.1732065360
1.1737075977
1.1738288558
1.1737150641
1.1734834740
1.1732275061
1.1730182880
1.1729038774
1.1729099686
1.1730401601
1.1732767554
1.1735853519
1.1739205122
1.1742321671
1.1744741473
1.1746113136
1.1720341138
1.2313318671
1.2295098346
1.2297434568
1.2301626942
1.2307383030
1.2314276092
1.2321768609
1.2329249549
1.2336042305
1.2341411685
1.2344569744
1.2344626898
1.2340514433
1.2330862684
1.2313735695
1.2286171053
1.2243323737
1.2176691823
1.2070492066
1.1894209396
1.1588207594
1.1002308964
1.0203156835
1.0281528926
1.0355621465
1.0340748718
1.0392886844
1.0484981038
1.0597414620
1.0720766040
1.0849874405
1.0980855054
1.1109931750
1.1233166432
1.1346680920
1.1447154362
1.1532304303
1.1601160311
1.1654088197
1.1692530026
1.1718585267
1.1734619757
1.1742949371
1.1745640086
1.1744452042
1.1740844446
1.1735997998
1.1730862340
1.1726176791
1.1722462370
1.1720027872
1.1718968753
1.1719169791
1.1720347199
1.1722101798
1.1723979627
1.1725555816
1.1726504729
1.1700713106
1.2305882711
1.2288122784
1.2290538641
1.2294849401
1.2300748636
1.2307785813
1.2315388066
1.2322895571
1.2329563735
1.2334562244
1.2336969819
1.2335704091
1.2329413870
1.2316316940
1.2293876205
1.2258287393
1.2203666426
1.2120666492
1.1994431199
1.1802251380
1.1513525430
1.1090872856
1.0621217132
1.0488541543
1.0451829979
1.0432787846
1.0461950714
1.0532124243
1.0629924437
1.0744942898
1.0869846766
1.0999015276
1.1127544113
1.1250807102
1.1364492053
1.1464995962
1.1549866273
1.1618058376
1.1669951028
1.1707062817
1.1731593928
1.1746006706
1.1752689679
1.1753748532
1.1750957905
1.1745776634
1.1739379273
1.1732713283
1.1726523903
1.1721346407
1.1717511777
1.1715143052
1.1714154236
1.1714290473
1.1715179132
1.1716388635
1.1717511871
1.1718235876
1.1692598874
1.2303038814
1.2285500775
1.2287959317
1.2292322023
1.2298274821
1.2305352913
1.2312961226
1.2320407818
1.2326901693
1.2331546101
1.2333326515
1.2331027448
1.2323112606
1.2307555093
1.2281518667
1.2240904748
1.2179765478
1.2089518244
1.1958320824
1.1771620755
1.1516332527
1.1190971347
1.0856897926
1.0666595972
1.0567882168
1.0522645141
1.0528981465
1.0579608367
1.0663386472
1.0769624457
1.0889544552
1.1016086393
1.1143306160
1.1265922399
1.1379219389
1.1479343657
1.1563695864
1.1631169064
1.1682152469
1.1718226794
1.1741675048
1.1755037112
1.1760758260
1.1760972670
1.1757460535
1.1751672416
1.1744767174
1.1737676283
1.1731132007
1.1725659400
1.1721582434
1.1719018907
1.1717877757
1.1717899033
1.1718704986
1.1719858992
1.1720949877
1.1721662162
1.1696305063
1.2304818463
1.2287246648
1.2289706734
1.2294049152
1.2299959133
1.2306968498
1.2314475309
1.2321775102
1.2328056334
1.2332390728
1.2333715334
1.2330746459
1.2321855858
1.2304910817
1.2276983191
1.2233966287
1.2170194623
1.2078086214
1.1948307336
1.1771432844
1.1542594747
1.1270371517
1.0996855404
1.0795050424
1.0666586198
1.0599150469
1.0586824351
1.0621775562
1.0693669804
1.0791794172
1.0906584339
1.1030013595
1.1155350000
1.1276781463
1.1389259520
1.1488727559
1.1572470125
1.1639327100
1.1689690986
1.1725182518
1.1748139222
1.1761153244
1.1766706297
1.1766948567
1.1763658660
1.1758273893
1.1751931792
1.1745537406
1.1739793781
1.1735193829
1.1732027155
1.1730374943
1.1730108019
1.1730928612
1.1732423436
1.1734124572
1.1735596078
1.1736505528
1.1711556081
1.2311079712
1.2293214935
1.2295634168
1.2299883533
1.2305654050
1.2312486148
1.2319786756
1.2326859206
1.2332899562
1.2336982844
1.2338043394
1.2334787209
1.2325572869
1.2308259394
1.2279945849
1.2236601431
1.2172807204
1.2081589244
1.1954883228
1.1785509071
1.1571620867
1.1324002683
1.1075479803
1.0873177725
1.0732580663
1.0652595838
1.0628698024
1.0653426793
1.0716956203
1.0808734758
1.0918955567
1.1039167687
1.1162237968
1.1282055048
1.1393373397
1.1492005107
1.1575157708
1.1641629093
1.1691797967
1.1727294926
1.1750475265
1.1763949223