<VTKFile type="UnstructuredGrid" version="0.1">
	<UnstructuredGrid>
		<Piece NumberOfPoints="13548" NumberOfCells="3387">
			<CellData>
				<DataArray type="Int32" Name="ghost" NumberOfComponents="1" Format="ascii">
1
1
1
1
1
1
1
1
1
1
1
1
1
1
1
1
1
1
1
1
1
1
1
1
1
1
1
1
1
1
1
1
1
1
1
1
1
1
1
1
1
1
1
1
1
1
1
1
1
1
1
1
1
1
1
1
1
1
0
0
0
0
0
0
0
0
0
0
0
0
0
0
0
0
0
0
0
0
1
1
0
0
0
0
0
0
0
0
0
0
0
0
0
0
0
0
0
0
0
0
0
0
0
0
0
0
0
0
0
0
0
0
0
1
1
0
0
0
0
0
0
0
0
0
0
0
0
0
0
0
0
0
0
0
0
1
1
0
0
0
0
0
0
0
0
0
0
0
0
0
0
0
0
0
0
0
0
0
0
0
0
0
0
0
0
0
0
0
0
0
1
1
0
0
0
0
0
0
0
0
0
0
0
0
0
0
0
0
0
0
0
0
1
1
0
0
0
0
0
0
0
0
0
0
0
0
0
0
0
0
0
0
0
0
0
0
0
0
0
0
0
0
0
0
0
0
0
1
1
0
0
0
0
0
0
0
0
0
0
0
0
0
0
0
0
0
0
0
0
1
1
0
0
0
0
0
0
0
0
0
0
0
0
0
0
0
0
0
0
0
0
0
0
0
0
0
0
0
0
0
0
0
0
0
1
1
0
0
0
0
0
0
0
0
0
0
0
0
0
0
0
0
0
0
0
0
1
1
0
0
0
0
0
0
0
0
0
0
0
0
0
0
0
0
0
0
0
0
0
0
0
0
0
0
0
0
0
0
0
0
0
1
1
0
0
0
0
0
0
0
0
0
0
0
0
0
0
0
0
0
0
0
0
1
1
0
0
0
0
0
0
0
0
0
0
0
0
0
0
0
0
0
0
0
0
0
0
0
0
0
0
0
0
0
0
0
0
0
1
1
0
0
0
0
0
0
0
0
0
0
0
0
0
0
0
0
0
0
0
0
1
1
0
0
0
0
0
0
0
0
0
0
0
0
0
0
0
0
0
0
0
0
0
0
0
0
0
0
0
0
0
0
0
0
0
1
1
0
0
0
0
0
0
0
0
0
0
0
0
0
0
0
0
0
0
0
0
1
1
0
0
0
0
0
0
0
0
0
0
0
0
0
0
0
0
0
0
0
0
0
0
0
0
0
0
0
0
0
0
0
0
0
1
1
0
0
0
0
0
0
0
0
0
0
0
0
0
0
0
0
0
0
0
0
1
1
0
0
0
0
0
0
0
0
0
0
0
0
0
0
0
0
0
0
0
0
0
0
0
0
0
0
0
0
0
0
0
0
0
1
1
0
0
0
0
0
0
0
0
0
0
0
0
0
0
0
0
0
0
0
0
1
1
0
0
0
0
0
0
0
0
0
0
0
0
0
0
0
0
0
0
0
0
0
0
0
0
0
0
0
0
0
0
0
0
0
1
1
0
0
0
0
0
0
0
0
0
0
0
0
0
0
0
0
0
0
0
0
1
1
0
0
0
0
0
0
0
0
0
0
0
0
0
0
0
0
0
0
0
0
0
0
0
0
0
0
0
0
0
0
0
0
0
1
1
0
0
0
0
0
0
0
0
0
0
0
0
0
0
0
0
0
0
0
0
1
1
0
0
0
0
0
0
0
0
0
0
0
0
0
0
0
0
0
0
0
0
0
0
0
0
0
0
0
0
0
0
0
0
0
1
1
0
0
0
0
0
0
0
0
0
0
0
0
0
0
0
0
0
0
0
0
1
1
0
0
0
0
0
0
0
0
0
0
0
0
0
0
0
0
0
0
0
0
0
0
0
0
0
0
0
0
0
0
0
0
0
1
1
0
0
0
0
0
0
0
0
0
0
0
0
0
0
0
0
0
0
0
0
1
1
0
0
0
0
0
0
0
0
0
0
0
0
0
0
0
0
0
0
0
0
0
0
0
0
0
0
0
0
0
0
0
0
0
1
1
0
0
0
0
0
0
0
0
0
0
0
0
0
0
0
0
0
0
0
0
1
1
0
0
0
0
0
0
0
0
0
0
0
0
0
0
0
0
0
0
0
0
0
0
0
0
0
0
0
0
0
0
0
0
0
1
1
0
0
0
0
0
0
0
0
0
0
0
0
0
0
0
0
0
0
0
0
1
1
0
0
0
0
0
0
0
0
0
0
0
0
0
0
0
0
0
0
0
0
0
0
0
0
0
0
0
0
0
0
0
0
0
1
1
0
0
0
0
0
0
0
0
0
0
0
0
0
0
0
0
0
0
0
0
1
1
0
0
0
0
0
0
0
0
0
0
0
0
0
0
0
0
0
0
0
0
0
0
0
0
0
0
0
0
0
0
0
0
0
1
1
0
0
0
0
0
0
0
0
0
0
0
0
0
0
0
0
0
0
0
0
1
1
0
0
0
0
0
0
0
0
0
0
0
0
0
0
0
0
0
0
0
0
0
0
0
0
0
0
0
0
0
0
0
0
0
1
1
0
0
0
0
0
0
0
0
0
0
0
0
0
0
0
0
0
0
0
0
1
1
0
0
0
0
0
0
0
0
0
0
0
0
0
0
0
0
0
0
0
0
0
0
0
0
0
0
0
0
0
0
0
0
0
1
1
0
0
0
0
0
0
0
0
0
0
0
0
0
0
0
0
0
0
0
0
1
1
0
0
0
0
0
0
0
0
0
0
0
0
0
0
0
0
0
0
0
0
0
0
0
0
0
0
0
0
0
0
0
0
0
1
1
0
0
0
0
0
0
0
0
0
0
0
0
0
0
0
0
0
0
0
0
1
1
0
0
0
0
0
0
0
0
0
0
0
0
0
0
0
0
0
0
0
0
0
0
0
0
0
0
0
0
0
0
0
0
0
1
1
0
0
0
0
0
0
0
0
0
0
0
0
0
0
0
0
0
0
0
0
1
1
0
0
0
0
0
0
0
0
0
0
0
0
0
0
0
0
0
0
0
0
0
0
0
0
0
0
0
0
0
0
0
0
0
1
1
0
0
0
0
0
0
0
0
0
0
0
0
0
0
0
0
0
0
0
0
1
1
0
0
0
0
0
0
0
0
0
0
0
0
0
0
0
0
0
0
0
0
0
0
0
0
0
0
0
0
0
0
0
0
0
1
1
0
0
0
0
0
0
0
0
0
0
0
0
0
0
0
0
0
0
0
0
1
1
0
0
0
0
0
0
0
0
0
0
0
0
0
0
0
0
0
0
0
0
0
0
0
0
0
0
0
0
0
0
0
0
0
1
1
0
0
0
0
0
0
0
0
0
0
0
0
0
0
0
0
0
0
0
0
0
1
1
0
0
0
0
0
0
0
0
0
0
0
0
0
0
0
0
0
0
0
0
0
0
0
0
0
0
0
0
0
0
0
0
0
0
1
1
0
0
0
0
0
0
0
0
0
0
0
0
0
0
0
0
0
0
0
0
0
0
0
0
0
0
0
0
0
0
0
0
0
0
0
0
0
0
0
0
0
0
0
0
0
0
0
0
0
0
0
0
0
0
0
0
0
1
1
0
0
0
0
0
0
0
0
0
0
0
0
0
0
0
0
0
0
0
0
0
0
0
0
0
0
0
0
0
0
0
0
0
0
0
0
0
0
0
0
0
0
0
0
0
0
0
0
0
0
0
0
0
0
0
0
0
1
1
0
0
0
0
0
0
0
0
0
0
0
0
0
0
0
0
0
0
0
0
0
0
0
0
0
0
0
0
0
0
0
0
0
0
0
0
0
0
0
0
0
0
0
0
0
0
0
0
0
0
0
0
0
0
0
0
0
1
1
0
0
0
0
0
0
0
0
0
0
0
0
0
0
0
0
0
0
0
0
0
0
0
0
0
0
0
0
0
0
0
0
0
0
0
0
0
0
0
0
0
0
0
0
0
0
0
0
0
0
0
0
0
0
0
0
0
1
1
0
0
0
0
0
0
0
0
0
0
0
0
0
0
0
0
0
0
0
0
0
0
0
0
0
0
0
0
0
0
0
0
0
0
0
0
0
0
0
0
0
0
0
0
0
0
0
0
0
0
0
0
0
0
0
0
0
1
1
0
0
0
0
0
0
0
0
0
0
0
0
0
0
0
0
0
0
0
0
0
0
0
0
0
0
0
0
0
0
0
0
0
0
0
0
0
0
0
0
0
0
0
0
0
0
0
0
0
0
0
0
0
0
0
0
0
1
1
0
0
0
0
0
0
0
0
0
0
0
0
0
0
0
0
0
0
0
0
0
0
0
0
0
0
0
0
0
0
0
0
0
0
0
0
0
0
0
0
0
0
0
0
0
0
0
0
0
0
0
0
0
0
0
0
0
1
1
0
0
0
0
0
0
0
0
0
0
0
0
0
0
0
0
0
0
0
0
0
0
0
0
0
0
0
0
0
0
0
0
0
0
0
0
0
0
0
0
0
0
0
0
0
0
0
0
0
0
0
0
0
0
0
0
0
1
1
0
0
0
0
0
0
0
0
0
0
0
0
0
0
0
0
0
0
0
0
0
0
0
0
0
0
0
0
0
0
0
0
0
0
0
0
0
0
0
0
0
0
0
0
0
0
0
0
0
0
0
0
0
0
0
0
0
1
1
0
0
0
0
0
0
0
0
0
0
0
0
0
0
0
0
0
0
0
0
0
0
0
0
0
0
0
0
0
0
0
0
0
0
0
0
0
0
0
0
0
0
0
0
0
0
0
0
0
0
0
0
0
0
0
0
0
1
1
0
0
0
0
0
0
0
0
0
0
0
0
0
0
0
0
0
0
0
0
0
1
1
0
0
0
0
0
0
0
0
0
0
0
0
0
0
0
0
0
0
0
0
0
0
0
0
0
0
0
0
0
0
0
0
0
0
1
1
0
0
0
0
0
0
0
0
0
0
0
0
0
0
0
0
0
0
0
0
1
1
0
0
0
0
0
0
0
0
0
0
0
0
0
0
0
0
0
0
0
0
0
0
0
0
0
0
0
0
0
0
0
0
0
1
1
0
0
0
0
0
0
0
0
0
0
0
0
0
0
0
0
0
0
0
0
1
1
0
0
0
0
0
0
0
0
0
0
0
0
0
0
0
0
0
0
0
0
0
0
0
0
0
0
0
0
0
0
0
0
0
1
1
0
0
0
0
0
0
0
0
0
0
0
0
0
0
0
0
0
0
0
0
1
1
0
0
0
0
0
0
0
0
0
0
0
0
0
0
0
0
0
0
0
0
0
0
0
0
0
0
0
0
0
0
0
0
0
1
1
0
0
0
0
0
0
0
0
0
0
0
0
0
0
0
0
0
0
0
0
1
1
0
0
0
0
0
0
0
0
0
0
0
0
0
0
0
0
0
0
0
0
0
0
0
0
0
0
0
0
0
0
0
0
0
1
1
0
0
0
0
0
0
0
0
0
0
0
0
0
0
0
0
0
0
0
0
1
1
0
0
0
0
0
0
0
0
0
0
0
0
0
0
0
0
0
0
0
0
0
0
0
0
0
0
0
0
0
0
0
0
0
1
1
0
0
0
0
0
0
0
0
0
0
0
0
0
0
0
0
0
0
0
0
1
1
0
0
0
0
0
0
0
0
0
0
0
0
0
0
0
0
0
0
0
0
0
0
0
0
0
0
0
0
0
0
0
0
0
1
1
0
0
0
0
0
0
0
0
0
0
0
0
0
0
0
0
0
0
0
0
1
1
0
0
0
0
0
0
0
0
0
0
0
0
0
0
0
0
0
0
0
0
0
0
0
0
0
0
0
0
0
0
0
0
0
1
1
0
0
0
0
0
0
0
0
0
0
0
0
0
0
0
0
0
0
0
0
1
1
0
0
0
0
0
0
0
0
0
0
0
0
0
0
0
0
0
0
0
0
0
0
0
0
0
0
0
0
0
0
0
0
0
1
1
0
0
0
0
0
0
0
0
0
0
0
0
0
0
0
0
0
0
0
0
1
1
0
0
0
0
0
0
0
0
0
0
0
0
0
0
0
0
0
0
0
0
0
0
0
0
0
0
0
0
0
0
0
0
0
1
1
0
0
0
0
0
0
0
0
0
0
0
0
0
0
0
0
0
0
0
0
1
1
0
0
0
0
0
0
0
0
0
0
0
0
0
0
0
0
0
0
0
0
0
0
0
0
0
0
0
0
0
0
0
0
0
1
1
0
0
0
0
0
0
0
0
0
0
0
0
0
0
0
0
0
0
0
0
1
1
0
0
0
0
0
0
0
0
0
0
0
0
0
0
0
0
0
0
0
0
0
0
0
0
0
0
0
0
0
0
0
0
0
1
1
0
0
0
0
0
0
0
0
0
0
0
0
0
0
0
0
0
0
0
0
1
1
0
0
0
0
0
0
0
0
0
0
0
0
0
0
0
0
0
0
0
0
0
0
0
0
0
0
0
0
0
0
0
0
0
1
1
0
0
0
0
0
0
0
0
0
0
0
0
0
0
0
0
0
0
0
0
1
1
0
0
0
0
0
0
0
0
0
0
0
0
0
0
0
0
0
0
0
0
0
0
0
0
0
0
0
0
0
0
0
0
0
1
1
0
0
0
0
0
0
0
0
0
0
0
0
0
0
0
0
0
0
0
0
1
1
0
0
0
0
0
0
0
0
0
0
0
0
0
0
0
0
0
0
0
0
0
0
0
0
0
0
0
0
0
0
0
0
0
1
1
0
0
0
0
0
0
0
0
0
0
0
0
0
0
0
0
0
0
0
0
1
1
0
0
0
0
0
0
0
0
0
0
0
0
0
0
0
0
0
0
0
0
0
0
0
0
0
0
0
0
0
0
0
0
0
1
1
0
0
0
0
0
0
0
0
0
0
0
0
0
0
0
0
0
0
0
0
1
1
0
0
0
0
0
0
0
0
0
0
0
0
0
0
0
0
0
0
0
0
0
0
0
0
0
0
0
0
0
0
0
0
0
1
1
0
0
0
0
0
0
0
0
0
0
0
0
0
0
0
0
0
0
0
0
1
1
0
0
0
0
0
0
0
0
0
0
0
0
0
0
0
0
0
0
0
0
0
0
0
0
0
0
0
0
0
0
0
0
0
1
1
0
0
0
0
0
0
0
0
0
0
0
0
0
0
0
0
0
0
0
0
1
1
0
0
0
0
0
0
0
0
0
0
0
0
0
0
0
0
0
0
0
0
0
0
0
0
0
0
0
0
0
0
0
0
0
1
1
0
0
0
0
0
0
0
0
0
0
0
0
0
0
0
0
0
0
0
0
1
1
0
0
0
0
0
0
0
0
0
0
0
0
0
0
0
0
0
0
0
0
0
0
0
0
0
0
0
0
0
0
0
0
0
1
1
0
0
0
0
0
0
0
0
0
0
0
0
0
0
0
0
0
0
0
0
1
1
0
0
0
0
0
0
0
0
0
0
0
0
0
0
0
0
0
0
0
0
0
0
0
0
0
0
0
0
0
0
0
0
0
1
1
0
0
0
0
0
0
0
0
0
0
0
0
0
0
0
0
0
0
0
0
1
1
0
0
0
0
0
0
0
0
0
0
0
0
0
0
0
0
0
0
0
0
0
0
0
0
0
0
0
0
0
0
0
0
0
1
1
1
1
1
1
1
1
1
1
1
1
1
1
1
1
1
1
1
1
1
1
1
1
1
1
1
1
1
1
1
1
1
1
1
1
1
1
1
1
1
1
1
1
1
1
1
1
1
1
1
1
1
1
1
1
1
1
				</DataArray>
				<DataArray type="Float64" Name="h" NumberOfComponents="1" Format="ascii">
1.1496351093
1.1508883816
1.1507172566
1.1503796915
1.1498835819
1.1492406097
1.1484660482
1.1475783391
1.1465987743
1.1455510820
1.1444607963
1.1433546551
1.1422599971
1.1412040280
1.1402130657
1.1393119102
1.1385232181
1.1378668127
1.1373592096
1.1370132701
1.1368377397
1.1368377397
1.2224494995
1.2205816911
1.2207349530
1.2210461455
1.2215208722
1.2221668909
1.2229929936
1.2240073555
1.2252161799
1.2266217825
1.2282205097
1.2300013122
1.2319443134
1.2340200547
1.2361901142
1.2384083771
1.2406235121
1.2427826263
1.2448349301
1.2467355793
1.2484490115
1.2499508797
1.2512290874
1.2522834106
1.2531239437
1.2537692521
1.2542437781
1.2545752388
1.2547926361
1.2549240199
1.2549948246
1.2550269666
1.2550375957
1.2550384258
1.2550384258
1.1508883816
1.1520743891
1.1519007890
1.1515582951
1.1510549796
1.1504027716
1.1496172433
1.1487171735
1.1477242029
1.1466624101
1.1455576754
1.1444370696
1.1433282543
1.1422587466
1.1412551620
1.1403425863
1.1395439389
1.1388792785
1.1383653239
1.1380150889
1.1378374207
1.1368377397
1.2205816911
1.2187453308
1.2189227519
1.2192817992
1.2198270456
1.2205646550
1.2215011891
1.2226418838
1.2239892622
1.2255412116
1.2272889781
1.2292159455
1.2312964938
1.2334956552
1.2357702250
1.2380704890
1.2403430837
1.2425348614
1.2445965195
1.2464861975
1.2481723700
1.2496352465
1.2508672951
1.2518724194
1.2526641195
1.2532635246
1.2536967884
1.2539925936
1.2541803165
1.2542879478
1.2543405934
1.2543597130
1.2543619861
1.2543587446
1.2550384258
1.1506023471
1.1517786420
1.1516041215
1.1512598842
1.1507541594
1.1500990896
1.1493104953
1.1484074113
1.1474117185
1.1463476974
1.1452413723
1.1441198908
1.1430109194
1.1419419114
1.1409393604
1.1400281857
1.1392311150
1.1385680092
1.1380554014
1.1377061513
1.1375289962
1.1365596042
1.2205321213
1.2187060920
1.2188821609
1.2192385705
1.2197799781
1.2205126774
1.2214434090
1.2225776372
1.2239181660
1.2254632156
1.2272044131
1.2291255620
1.2312014844
1.2333976541
1.2356712764
1.2379729820
1.2402496563
1.2424482767
1.2445195261
1.2464213884
1.2481220508
1.2496013235
1.2508511935
1.2518750388
1.2526858122
1.2533040994
1.2537555349
1.2540683199
1.2542713996
1.2543923928
1.2544560960
1.2544837235
1.2544917744
1.2544914611
1.2551712953
1.1500413400
1.1511980611
1.1510218644
1.1506744625
1.1501643845
1.1495041814
1.1487101464
1.1478018009
1.1468014799
1.1457338404
1.1446251707
1.1435027500
1.1423942357
1.1413269386
1.1403270962
1.1394192858
1.1386258452
1.1379662344
1.1374566121
1.1371095275
1.1369334967
1.1360234822
1.2204106489
1.2186050391
1.2187788803
1.2191309400
1.2196659934
1.2203905264
1.2213115557
1.2224349149
1.2237638831
1.2252972653
1.2270273801
1.2289388129
1.2310072270
1.2331989509
1.2354719952
1.2377776769
1.2400633848
1.2422763587
1.2443672699
1.2462938099
1.2480236151
1.2495357240
1.2508211931
1.2518823591
1.2527310896
1.2533868949
1.2538743859
1.2542208195
1.2544542987
1.2546017181
1.2546872737
1.2547317054
1.2547511633
1.2547566307
1.2554366766
1.1492197638
1.1503472665
1.1501688740
1.1498173444
1.1493016253
1.1486348357
1.1478339253
1.1469190877
1.1459132803
1.1448416702
1.1437308929
1.1426083851
1.1415017609
1.1404380972
1.1394432371
1.1385412424
1.1377538690
1.1370999834
1.1365951908
1.1362515833
1.1360773515
1.1352529862
1.2202113251
1.2184358527
1.2186066767
1.2189528445
1.2194792878
1.2201927505
1.2211006264
1.2222092614
1.2235226009
1.2250402798
1.2267556058
1.2286542904
1.2307132135
1.2328999436
1.2351736606
1.2374866779
1.2397871100
1.2420225696
1.2441436938
1.2461077315
1.2478814907
1.2494428668
1.2507815391
1.2518982999
1.2528034172
1.2535148226
1.2540556322
1.2544517322
1.2547300097
1.2549163194
1.2550339987
1.2551031118
1.2551393143
1.2551532656
1.2558334538
1.1481582719
1.1492472747
1.1490664783
1.1487104620
1.1481886763
1.1475149209
1.1467069294
1.1457856927
1.1447748992
1.1437003043
1.1425889266
1.1414683498
1.1403660845
1.1393088689
1.1383220094
1.1374288835
1.1366504845
1.1360049054
1.1355070343
1.1351683723
1.1349966897
1.1342802930
1.2199252761
1.2181891253
1.2183562821
1.2186952908
1.2192112822
1.2199113282
1.2208033018
1.2218942023
1.2231888266
1.2246878709
1.2263859101
1.2282700974
1.2303188701
1.2325013811
1.2347783003
1.2371032014
1.2394251057
1.2416920669
1.2438546384
1.2458694476
1.2477021928
1.2493292486
1.2507384750
1.2519286370
1.2529079207
1.2536922165
1.2543027221
1.2547635779
1.2551001344
1.2553369428
1.2554962710
1.2555973467
1.2556552164
1.2556801425
1.2563601960
1.1468828007
1.1479245505
1.1477414915
1.1473813058
1.1468539909
1.1461740854
1.1453601691
1.1444340863
1.1434202975
1.1423451620
1.1412360663
1.1401206904
1.1390263563
1.1379793453
1.1370042839
1.1361237040
1.1353576684
1.1347233345
1.1342347265
1.1339026351
1.1337343274
1.1331434528
1.2195412746
1.2178529642
1.2180159928
1.2183469466
1.2188512018
1.2195362302
1.2204104863
1.2214817594
1.2227558716
1.2242347927
1.2259146137
1.2277842080
1.2298238646
1.2320046136
1.2342888789
1.2366317038
1.2389831420
1.2412917126
1.2435077897
1.2455871875
1.2474941954
1.2492032932
1.2507000864
1.2519808504
1.2530512477
1.2539247190
1.2546201799
1.2551597138
1.2555668793
1.2558647233
1.2560742926
1.2562138668
1.2562978080
1.2563359352
1.2570152793
1.1454230703
1.1464095249
1.1462246925
1.1458613252
1.1453299708
1.1446459075
1.1438285572
1.1429006029
1.1418872498
1.1408154160
1.1397127902
1.1386070623
1.1375252575
1.1364930731
1.1355343136
1.1346705150
1.1339206576
1.1333008190
1.1328240307
1.1325002694
1.1323362262
1.1318832232
1.2190472633
1.2174145586
1.2175732224
1.2178956636
1.2183875539
1.2190568393
1.2199126563
1.2209637133
1.2222170165
1.2236759965
1.2253384743
1.2271952766
1.2292287832
1.2314121325
1.2337097024
1.2360781505
1.2384686316
1.2408301010
1.2431126205
1.2452709502
1.2472677058
1.2490750982
1.2506760183
1.2520638395
1.2532413033
1.2542190488
1.2550134157
1.2556441933
1.2561329663
1.2565011480
1.2567684770
1.2569522296
1.2570660517
1.2571193023
1.2577969660
1.1438115025
1.1447354941
1.1445496904
1.1441847315
1.1436516788
1.1429664976
1.1421493849
1.1412237835
1.1402155529
1.1391520716
1.1380612215
1.1369705858
1.1359067681
1.1348947492
1.1339573748
1.1331150457
1.1323855240
1.1317836798
1.1313214390
1.1310078738
1.1308490357
1.1305410091
1.2184301839
1.2168600554
1.2170143826
1.2173283697
1.2178080363
1.2184618766
1.2192998034
1.2203315624
1.2215654809
1.2230066053
1.2246546587
1.2265025982
1.2285350709
1.2307274838
1.2330462979
1.2354498612
1.2378904359
1.2403173339
1.2426801355
1.2449322905
1.2470344218
1.2489561723
1.2506772385
1.2521877236
1.2534871004
1.2545829150
1.2554887084
1.2562218187
1.2568017547
1.2572482416
1.2575796917
1.2578123809
1.2579592527
1.2580292218
1.2587037198
1.1420819858
1.1429373757
1.1427516558
1.1423871791
1.1418554501
1.1411730233
1.1403607513
1.1394427038
1.1384452550
1.1373961016
1.1363231785
1.1352538243
1.1342140857
1.1332280946
1.1323176074
1.1315017625
1.1307969809
1.1302168113
1.1297719723
1.1294705491
1.1293178955
1.1291569896
1.2176768469
1.2161754603
1.2163257819
1.2166319612
1.2171004184
1.2177402646
1.2185622725
1.2195773238
1.2207951760
1.2222226074
1.2238613633
1.2257066473
1.2277454765
1.2299556135
1.2323056535
1.2347556395
1.2372588904
1.2397649531
1.2422227125
1.2445840520
1.2468073073
1.2488591461
1.2507157290
1.2523635317
1.2537984655
1.2550247555
1.2560529912
1.2568979797
1.2575771319
1.2581085083
1.2585092457
1.2587946796
1.2589771108
1.2590650557
1.2597342602
1.1402684248
1.1410502317
1.1408658284
1.1405042446
1.1399773322
1.1393021023
1.1384999057
1.1375952673
1.1366149015
1.1355866527
1.1345383481
1.1334969327
1.1324877586
1.1315339790
1.1306561392
1.1298719977
1.1291965213
1.1286418302
1.1282173391
1.1279300655
1.1277846075
1.1277685645
1.2167756053
1.2153483450
1.2154953157
1.2157949612
1.2162541512
1.2168826720
1.2176922213
1.2186948902
1.2199019409
1.2213219537
1.2229587614
1.2248098616
1.2268646698
1.2291033121
1.2314964942
1.2340058943
1.2365857760
1.2391857557
1.2417538270
1.2442400223
1.2466000831
1.2487973275
1.2508040258
1.2526027503
1.2541856139
1.2555533526
1.2567135206
1.2576783854
1.2584633119
1.2590847903
1.2595587993
1.2598998502
1.2601197020
1.2602265482
1.2608875622
1.1384038002
1.1391082782
1.1389265235
1.1385704280
1.1380520795
1.1373887931
1.1366022373
1.1357171994
1.1347605404
1.1337600694
1.1327433369
1.1317367434
1.1307648113
1.1298495925
1.1290103070
1.1282632220
1.1276217400
1.1270964447
1.1266953444
1.1264242997
1.1262870875
1.1264099996
1.2157163089
1.2143678163
1.2145124421
1.2148075104
1.2152603772
1.2158815420
1.2166836640
1.2176800818
1.2188835913
1.2203045933
1.2219490058
1.2238166124
1.2258991652
1.2281790868
1.2306291083
1.2332124086
1.2358840353
1.2385935006
1.2412876714
1.2439145238
1.2464268661
1.2487842734
1.2509548409
1.2529169887
1.2546588607
1.2561775999
1.2574776995
1.2585689443
1.2594647714
1.2601802605
1.2607304053
1.2611290594
1.2613875806
1.2615139394
1.2621629681
1.1365194038
1.1371440865
1.1369663370
1.1366183668
1.1361123824
1.1354658435
1.1347005501
1.1338413536
1.1329150668
1.1319492796
1.1309711015
1.1300062442
1.1290782748
1.1282080295
1.1274132949
1.1267087384
1.1261060819
1.1256142512
1.1252397267
1.1249871023
1.1248592491
1.1251123930
1.2144911633
1.2132253641
1.2133690294
1.2136622132
1.2141127718
1.2147319215
1.2155332758
1.2165314089
1.2177406274
1.2191730942
1.2208367681
1.2227336098
1.2248576300
1.2271933577
1.2297154069
1.2323883031
1.2351676751
1.2380026709
1.2408388205
1.2436220047
1.2463017399
1.2488333131
1.2511805368
1.2533174662
1.2552281315
1.2569060269
1.2583526262
1.2595753442
1.2605858603
1.2613980593
1.2620261737
1.2624836038
1.2627814801
1.2629276734
1.2635599128
1.1346440743
1.1351877706
1.1350153453
1.1346780591
1.1341881242
1.1335629922
1.1328244157
1.1319971233
1.1311076948
1.1301833310
1.1292505500
1.1283342450
1.1274569157
1.1266380805
1.1258939895
1.1252375975
1.1246788145
1.1242247602
1.1238802298
1.1236484018
1.1235311253
1.1239038277
1.2130960527
1.2119161732
1.2120606557
1.2123554164
1.2128087866
1.2134326500
1.2142415060
1.2152510929
1.2164771190
1.2179334111
1.2196298054
1.2215703389
1.2237510605
1.2261584838
1.2287688194
1.2315477573
1.2344513205
1.2374280924
1.2404219765
1.2433765999
1.2462380343
1.2489568968
1.2514924975
1.2538143618
1.2559023156
1.2577461961
1.2593445313
1.2607025313
1.2618303258
1.2627408553
1.2634478592
1.2639645220
1.2643019425
1.2644680340
1.2650775929
1.1328038116
1.1332665552
1.1331006870
1.1327764735
1.1323060322
1.1317066707
1.1309999359
1.1302102689
1.1293638563
1.1284873631
1.1276065893
1.1267455034
1.1259254451
1.1251645264
1.1244773627
1.1238750730
1.1233655964
1.1229540521
1.1226433333
1.1224349907
1.1223296835
1.1228101552
1.2115301172
1.2104386684
1.2105861743
1.2108868123
1.2113492991
1.2119860567
1.2128123192
1.2138448162
1.2151004963
1.2165946292
1.2183387657
1.2203387429
1.2225925029
1.2250883088
1.2278037956
1.2307055152
1.2337497105
1.2368841944
1.2400511521
1.2431916230
1.2462479574
1.2491660883
1.2519005799
1.2544162680
1.2566887449
1.2587042113
1.2604583219
1.2619542631
1.2632008762
1.2642104288
1.2649964564
1.2655721949
1.2659489259
1.2661347570
1.2667146153
1.1310216852
1.1314046591
1.1312464599
1.1309374728
1.1304896387
1.1299200099
1.1292498000
1.1285030302
1.1277053674
1.1268828285
1.1260604027
1.1252610583
1.1245049101
1.1238085942
1.1231849984
1.1226432681
1.1221891703
1.1218255584
1.1215531127
1.1213714450
1.1212797764
1.1218558621
1.2097959831
1.2087947033
1.2089479245
1.2092596853
1.2097388985
1.2103982774
1.2112535071
1.2123220448
1.2136217922
1.2151692204
1.2169772831
1.2190533920
1.2213971075
1.2239982280
1.2268356223
1.2298765488
1.2330772000
1.2363845680
1.2397389173
1.2430785156
1.2463417376
1.2494697464
1.2524122919
1.2551294763
1.2575924980
1.2597839369
1.2616967532
1.2633322745
1.2646983222
1.2658068012
1.2666713290
1.2673054709
1.2677209225
1.2679261474
1.2684681772
1.1293177787
1.1296232062
1.1294736461
1.1291817651
1.1287592678
1.1282228714
1.1275933635
1.1268942537
1.1261506044
1.1253877152
1.1246297145
1.1238985368
1.1232130442
1.1225883553
1.1220355490
1.1215616433
1.1211699775
1.1208607724
1.1206320438
1.1204809962
1.1204050459
1.1210648993
1.2078999114
1.2069896896
1.2071518944
1.2074811167
1.2079861269
1.2086795023
1.2095769328
1.2106961807
1.2120557406
1.2136729278
1.2155618265
1.2177311229
1.2201817118
1.2229047126
1.2258800325
1.2290754778
1.2324471839
1.2359411108
1.2394957086
1.2430462085
1.2465267276
1.2498738596
1.2530323166
1.2559571760
1.2586154523
1.2609860889
1.2630594746
1.2648353381
1.2663206730
1.2675273262
1.2684693060
1.2691607682
1.2696140646
1.2698381850
1.2703332550
1.1277092235
1.1279402405
1.1278001344
1.1275269416
1.1271320957
1.1266319311
1.1260467580
1.1253995276
1.1247146631
1.1240167285
1.1233289963
1.1226723880
1.1220645379
1.1215190503
1.1210451384
1.1206475304
1.1203268166
1.1200800791
1.1199019997
1.1197866540
1.1197290932
1.1204617703
1.2058500944
1.2050309207
1.2052060388
1.2055602385
1.2061016162
1.2068419799
1.2077964036
1.2089824324
1.2104187083
1.2121230284
1.2141102695
1.2163900705
1.2189643589
1.2218252876
1.2249536100
1.2283175375
1.2318729228
1.2355648261
1.2393302652
1.2431013011
1.2468079971
1.2503811670
1.2537612104
1.2568983619
1.2597551694
1.2623071496
1.2645420899
1.2664582789
1.2680621395
1.2693656853
1.2703836444
1.2711310436
1.2716211005
1.2718635054
1.2723016647
1.1262105068
1.1263710336
1.1262410317
1.1259877957
1.1256224766
1.1251610139
1.1246232304
1.1240315217
1.1234096914
1.1227816110
1.1221697685
1.1215941660
1.1210713098
1.1206133662
1.1202276819
1.1199165453
1.1196774129
1.1195035347
1.1193852571
1.1193123727
1.1192766689
1.1200726642
1.2036550460
1.2029259560
1.2031184830
1.2035064301
1.2040965643
1.2048989578
1.2059271278
1.2071976513
1.2087287573
1.2105383150
1.2126416743
1.2150491718
1.2177635227
1.2207776881
1.2240730602
1.2276181035
1.2313683385
1.2352677063
1.2392518137
1.2432494304
1.2471857845
1.2509890378
1.2545940385
1.2579461139
1.2610034183
1.2637378394
1.2661347294
1.2681904638
1.2699115099
1.2713103200
1.2724025340
1.2732043033
1.2737299258
1.2739899423
1.2743607157
1.1248337829
1.1249283816
1.1248089636
1.1245766279
1.1242422552
1.1238214095
1.1233334580
1.1228002938
1.1222451786
1.1216914026
1.1211608200
1.1206726999
1.1202426275
1.1198815253
1.1195949829
1.1193827684
1.1192387856
1.1191515314
1.1191055031
1.1190842826
1.1190748098
1.1199266254
1.2013227121
1.2006817870
1.2008965781
1.2013287171
1.2019826708
1.2028651319
1.2039865432
1.2053613855
1.2070067316
1.2089400444
1.2111768846
1.2137280862
1.2165970384
1.2197774012
1.2232511493
1.2269870171
1.2309402998
1.2350539946
1.2392618742
1.2434897955
1.2476592615
1.2516941506
1.2555245669
1.2590913049
1.2623482255
1.2652636323
1.2678204356
1.2700142408
1.2718507841
1.2733430410
1.2745077496
1.2753623288
1.2759223349
1.2761993168
1.2764921212
1.1235890151
1.1236227520
1.1235142184
1.1233033848
1.1230008939
1.1226219836
1.1221856361
1.1217133426
1.1212279602
1.1207523815
1.1203080702
1.1199138643
1.1195847840
1.1193308847
1.1191563194
1.1190584407
1.1190272499
1.1190453382
1.1190890562
1.1191323578
1.1191540616
1.1200569068
1.1988585709
1.1983032923
1.1985449159
1.1990342752
1.1997712305
1.2007559818
1.2019934793
1.2034946250
1.2052745437
1.2073499637
1.2097365368
1.2124456323
1.2154813074
1.2188379800
1.2224982710
1.2264313571
1.2305924507
1.2349238115
1.2393573397
1.2438160367
1.2482181232
1.2524834085
1.2565374715
1.2603165512
1.2637704186
1.2668640520
1.2695780333
1.2719067967
1.2738559177
1.2754390264
1.2766740206
1.2775796773
1.2781728978
1.2784662953
1.2786709686
1.1224843655
1.1224626865
1.1223651462
1.1221760500
1.1219058508
1.1215695345
1.1211858006
1.1207758817
1.1203624222
1.1199681722
1.1196145452
1.1193203880
1.1191007017
1.1189653280
1.1189176626
1.1189531765
1.1190579484
1.1192074491
1.1193664731
1.1194929341
1.1195493906
1.1205022532
1.1962630217
1.1957911362
1.1960605848
1.1966240005
1.1974698654
1.1985855722
1.1999667392
1.2016188881
1.2035546204
1.2057899297
1.2083408259
1.2112194905
1.2144309643
1.2179706267
1.2218219859
1.2259548429
1.2303245921
1.2348730216
1.2395302037
1.2442164685
1.2488471493
1.2533382743
1.2576111128
1.2615975571
1.2652434347
1.2685104716
1.2713770907
1.2738366588
1.2758946344
1.2775653688
1.2788680030
1.2798227400
1.2804478530
1.2807570594
1.2808643372
1.1215265797
1.1214551841
1.1213685418
1.1212010244
1.1209629544
1.1206691554
1.1203381703
1.1199911459
1.1196507463
1.1193398915
1.1190803739
1.1188916260
1.1187894045
1.1187843499
1.1188803643
1.1190723845
1.1193435415
1.1196615601
1.1199750984
1.1202135183
1.1202999226
1.1213075834
1.1935294083
1.1931408666
1.1934253444
1.1940866599
1.1950795535
1.1963653641
1.1979246410
1.1997559221
1.2018694855
1.2042813922
1.2070088507
1.2100656131
1.2134582922
1.2171836976
1.2212265231
1.2255574712
1.2301324378
1.2348930354
1.2397676548
1.2446742180
1.2495255540
1.2542342402
1.2587175276
1.2629032033
1.2667333474
1.2701666249
1.2731794017
1.2757640533
1.2779259807
1.2796802708
1.2810473226
1.2820487604
1.2827042264
1.2830285311
1.2830306122
1.1207210875
1.1206058209
1.1205297620
1.1203832377
1.1201765038
1.1199243184
1.1196452024
1.1193604012
1.1190928469
1.1188659694
1.1187024179
1.1186228984
1.1186449045
1.1187813188
1.1190386052
1.1194139644
1.1198908018
1.1204311520
1.1209631587
1.1213638867
1.1214449981
1.1225221133
1.1906463686
1.1903478997
1.1905899603
1.1913900149
1.1925923625
1.1941049208
1.1958864010
1.1979288161
1.2002424222
1.2028456370
1.2057586712
1.2089981409
1.2125731634
1.2164826220
1.2207128119
1.2252356862
1.2300078992
1.2349711687
1.2400524972
1.2451677415
1.2502275579
1.2551414014
1.2598228832
1.2641960062
1.2681993963
1.2717888866
1.2749389312
1.2776409944
1.2799004364
1.2817330695
1.2831604995
1.2842057082
1.2848896538
1.2852281971
1.2851193282
1.1200723405
1.1199191078
1.1198530846
1.1197265075
1.1195496269
1.1193372276
1.1191079348
1.1188832625
1.1186866403
1.1185423201
1.1184742635
1.1185051447
1.1186552745
1.1189415384
1.1193759222
1.1199628215
1.1206937312
1.1215353056
1.1224010307
1.1230804732
1.1230539568
1.1242266260
1.1876142019
1.1874294089
1.1874363601
1.1884662476
1.1899918759
1.1918165811
1.1938764830
1.1961649515
1.1986991783
1.2015046994
1.2046077432
1.2080296650
1.2117832416
1.2158701773
1.2202788916
1.2249828439
1.2299396461
1.2350913166
1.2403639307
1.2456716791
1.2509232389
1.2560253572
1.2608883942
1.2654330316
1.2695948471
1.2733271327
1.2766026339
1.2794120076
1.2817605909
1.2836648661
1.2851475583
1.2862328734
1.2869429586
1.2872946459
1.2870717774
1.1195841613
1.1193988475
1.1193420700
1.1192339106
1.1190846657
1.1189092231
1.1187264119
1.1185581446
1.1184285136
1.1183628130
1.1183866322
1.1185251182
1.1188022776
1.1192406056
1.1198609809
1.1206825769
1.1217233181
1.1230018671
1.1245444459
1.1264062156
1.1287473669
1.1325371253
1.1476915086
1.1506160610
1.1781025885
1.1807535285
1.1828629948
1.1850144527
1.1872260412
1.1895205723
1.1919314090
1.1944999202
1.1972696151
1.2002817982
1.2035728700
1.2071710535
1.2110939400
1.2153467004
1.2199202532
1.2247897713
1.2299138588
1.2352349302
1.2406787740
1.2461582508
1.2515800584
1.2568487681
1.2618720182
1.2665677121
1.2708688782
1.2747266863
1.2781124547
1.2810161842
1.2834432131
1.2854106249
1.2869421144
1.2880629604
1.2887962881
1.2891597147
1.2888229913
1.1192598057
1.1190482210
1.1189996539
1.1189078862
1.1187832976
1.1186409293
1.1184998754
1.1183825119
1.1183136663
1.1183197422
1.1184280127
1.1186661286
1.1190618742
1.1196432162
1.1204394389
1.1214827256
1.1228117491
1.1244792376
1.1265662876
1.1292097553
1.1326714118
1.1375771675
1.1469120892
1.1497295931
1.1674729725
1.1738499094
1.1781580593
1.1815597408
1.1845415468
1.1873510417
1.1901332516
1.1929879256
1.1959908309
1.1992022845
1.2026706109
1.2064318579
1.2105089345
1.2149107109
1.2196306890
1.2246457453
1.2299154109
1.2353823644
1.2409730040
1.2465988322
1.2521645158
1.2575732065
1.2627304189
1.2675519320
1.2719688426
1.2759307314
1.2794078852
1.2823898588
1.2848820664
1.2869020725
1.2884743570
1.2896250686
1.2903780925
1.2907515775
1.2903045421
1.1191021990
1.1188700439
1.1188284113
1.1187505181
1.1186468472
1.1185326164
1.1184272016
1.1183534443
1.1183368772
1.1184049240
1.1185863536
1.1189109407
1.1194094426
1.1201142581
1.1210607148
1.1222892196
1.1238490554
1.1258048447
1.1282472014
1.1313113057
1.1351941949
1.1402072632
1.1472655148
1.1527334439
1.1634447207
1.1698810426
1.1747926603
1.1788018853
1.1822869696
1.1854930805
1.1885876202
1.1916930964
1.1949033247
1.1982918799
1.2019165924
1.2058202433
1.2100304957
1.2145595429
1.2194031566
1.2245396789
1.2299293790
1.2355151040
1.2412231076
1.2469649716
1.2526438968
1.2581612062
1.2634213097
1.2683386356
1.2728431236
1.2768834611
1.2804293898
1.2834703749
1.2860118990
1.2880718446
1.2896751935
1.2908484947
1.2916162427
1.2919972471
1.2914467860
1.1191141665
1.1188670028
1.1188308031
1.1187638044
1.1186765979
1.1185845790
1.1185073919
1.1184682789
1.1184933272
1.1186107629
1.1188505003
1.1192438759
1.1198237591
1.1206253620
1.1216874961
1.1230544783
1.1247790504
1.1269262490
1.1295784797
1.1328408991
1.1368443711
1.1417326206
1.1477596145
1.1536283894
1.1613942494
1.1674366519
1.1724669376
1.1767572845
1.1805458240
1.1840274031
1.1873571870
1.1906603427
1.1940378111
1.1975705498
1.2013226550
1.2053417838
1.2096591969
1.2142895949
1.2192303948
1.2244608843
1.2299416986
1.2356155893
1.2414085039
1.2472319286
1.2529888094
1.2585793858
1.2639070239
1.2688858059
1.2734455191
1.2775347565
1.2811232947
1.2842005806
1.2867723095
1.2888567489
1.2904791436
1.2916664839
1.2924435740
1.2928294424
1.2921876842
1.1192983883
1.1190416340
1.1190091697
1.1189496799
1.1188738575
1.1187972506
1.1187397142
1.1187247853
1.1187789442
1.1189309434
1.1192114104
1.1196526091
1.1202885938
1.1211560028
1.1222951264
1.1237513459
1.1255770390
1.1278333062
1.1305908156
1.1339288460
1.1379283377
1.1426515302
1.1481376231
1.1538496737
1.1602930815
1.1659738237
1.1709720168
1.1753792931
1.1793362340
1.1829902203
1.1864774594
1.1899183713
1.1934151945
1.1970521617
1.2008968336
1.2049997855
1.2093944868
1.2140970651
1.2191057134
1.2243999708
1.2299402977
1.2356690393
1.2415117133
1.2473795966
1.2531755177
1.2587996334
1.2641555228
1.2691577189
1.2737366759
1.2778417252
1.2814433175
1.2845315149
1.2871124453
1.2892045430
1.2908331914
1.2920253600
1.2928058208
1.2931935752
1.2924760510
1.1196573953
1.1193963367
1.1193657446
1.1193100358
1.1192399883
1.1191712673
1.1191238719
1.1191215127
1.1191908697
1.1193609278
1.1196625947
1.1201284652
1.1207929667
1.1216930950
1.1228693090
1.1243666152
1.1262358010
1.1285339457
1.1313232891
1.1346673759
1.1386216009
1.1432122689
1.1484159843
1.1539324991
1.1598045392
1.1652545029
1.1701914936
1.1746302758
1.1786597779
1.1823982010
1.1859679408
1.1894842060
1.1930482611
1.1967451557
1.2006437525
1.2047956837
1.2092351613
1.2139785015
1.2190236404
1.2243495301
1.2299158254
1.2356640384