<VTKFile type="UnstructuredGrid" version="0.1">
	<UnstructuredGrid>
		<Piece NumberOfPoints="13548" NumberOfCells="3387">
			<CellData>
				<DataArray type="Int32" Name="ghost" NumberOfComponents="1" Format="ascii">
1
1
1
1
1
1
1
1
1
1
1
1
1
1
1
1
1
1
1
1
1
1
1
1
1
1
1
1
1
1
1
1
1
1
1
1
1
1
1
1
1
1
1
1
1
1
1
1
1
1
1
1
1
1
1
1
1
1
0
0
0
0
0
0
0
0
0
0
0
0
0
0
0
0
0
0
0
0
1
1
0
0
0
0
0
0
0
0
0
0
0
0
0
0
0
0
0
0
0
0
0
0
0
0
0
0
0
0
0
0
0
0
0
1
1
0
0
0
0
0
0
0
0
0
0
0
0
0
0
0
0
0
0
0
0
1
1
0
0
0
0
0
0
0
0
0
0
0
0
0
0
0
0
0
0
0
0
0
0
0
0
0
0
0
0
0
0
0
0
0
1
1
0
0
0
0
0
0
0
0
0
0
0
0
0
0
0
0
0
0
0
0
1
1
0
0
0
0
0
0
0
0
0
0
0
0
0
0
0
0
0
0
0
0
0
0
0
0
0
0
0
0
0
0
0
0
0
1
1
0
0
0
0
0
0
0
0
0
0
0
0
0
0
0
0
0
0
0
0
1
1
0
0
0
0
0
0
0
0
0
0
0
0
0
0
0
0
0
0
0
0
0
0
0
0
0
0
0
0
0
0
0
0
0
1
1
0
0
0
0
0
0
0
0
0
0
0
0
0
0
0
0
0
0
0
0
1
1
0
0
0
0
0
0
0
0
0
0
0
0
0
0
0
0
0
0
0
0
0
0
0
0
0
0
0
0
0
0
0
0
0
1
1
0
0
0
0
0
0
0
0
0
0
0
0
0
0
0
0
0
0
0
0
1
1
0
0
0
0
0
0
0
0
0
0
0
0
0
0
0
0
0
0
0
0
0
0
0
0
0
0
0
0
0
0
0
0
0
1
1
0
0
0
0
0
0
0
0
0
0
0
0
0
0
0
0
0
0
0
0
1
1
0
0
0
0
0
0
0
0
0
0
0
0
0
0
0
0
0
0
0
0
0
0
0
0
0
0
0
0
0
0
0
0
0
1
1
0
0
0
0
0
0
0
0
0
0
0
0
0
0
0
0
0
0
0
0
1
1
0
0
0
0
0
0
0
0
0
0
0
0
0
0
0
0
0
0
0
0
0
0
0
0
0
0
0
0
0
0
0
0
0
1
1
0
0
0
0
0
0
0
0
0
0
0
0
0
0
0
0
0
0
0
0
1
1
0
0
0
0
0
0
0
0
0
0
0
0
0
0
0
0
0
0
0
0
0
0
0
0
0
0
0
0
0
0
0
0
0
1
1
0
0
0
0
0
0
0
0
0
0
0
0
0
0
0
0
0
0
0
0
1
1
0
0
0
0
0
0
0
0
0
0
0
0
0
0
0
0
0
0
0
0
0
0
0
0
0
0
0
0
0
0
0
0
0
1
1
0
0
0
0
0
0
0
0
0
0
0
0
0
0
0
0
0
0
0
0
1
1
0
0
0
0
0
0
0
0
0
0
0
0
0
0
0
0
0
0
0
0
0
0
0
0
0
0
0
0
0
0
0
0
0
1
1
0
0
0
0
0
0
0
0
0
0
0
0
0
0
0
0
0
0
0
0
1
1
0
0
0
0
0
0
0
0
0
0
0
0
0
0
0
0
0
0
0
0
0
0
0
0
0
0
0
0
0
0
0
0
0
1
1
0
0
0
0
0
0
0
0
0
0
0
0
0
0
0
0
0
0
0
0
1
1
0
0
0
0
0
0
0
0
0
0
0
0
0
0
0
0
0
0
0
0
0
0
0
0
0
0
0
0
0
0
0
0
0
1
1
0
0
0
0
0
0
0
0
0
0
0
0
0
0
0
0
0
0
0
0
1
1
0
0
0
0
0
0
0
0
0
0
0
0
0
0
0
0
0
0
0
0
0
0
0
0
0
0
0
0
0
0
0
0
0
1
1
0
0
0
0
0
0
0
0
0
0
0
0
0
0
0
0
0
0
0
0
1
1
0
0
0
0
0
0
0
0
0
0
0
0
0
0
0
0
0
0
0
0
0
0
0
0
0
0
0
0
0
0
0
0
0
1
1
0
0
0
0
0
0
0
0
0
0
0
0
0
0
0
0
0
0
0
0
1
1
0
0
0
0
0
0
0
0
0
0
0
0
0
0
0
0
0
0
0
0
0
0
0
0
0
0
0
0
0
0
0
0
0
1
1
0
0
0
0
0
0
0
0
0
0
0
0
0
0
0
0
0
0
0
0
1
1
0
0
0
0
0
0
0
0
0
0
0
0
0
0
0
0
0
0
0
0
0
0
0
0
0
0
0
0
0
0
0
0
0
1
1
0
0
0
0
0
0
0
0
0
0
0
0
0
0
0
0
0
0
0
0
1
1
0
0
0
0
0
0
0
0
0
0
0
0
0
0
0
0
0
0
0
0
0
0
0
0
0
0
0
0
0
0
0
0
0
1
1
0
0
0
0
0
0
0
0
0
0
0
0
0
0
0
0
0
0
0
0
1
1
0
0
0
0
0
0
0
0
0
0
0
0
0
0
0
0
0
0
0
0
0
0
0
0
0
0
0
0
0
0
0
0
0
1
1
0
0
0
0
0
0
0
0
0
0
0
0
0
0
0
0
0
0
0
0
1
1
0
0
0
0
0
0
0
0
0
0
0
0
0
0
0
0
0
0
0
0
0
0
0
0
0
0
0
0
0
0
0
0
0
1
1
0
0
0
0
0
0
0
0
0
0
0
0
0
0
0
0
0
0
0
0
1
1
0
0
0
0
0
0
0
0
0
0
0
0
0
0
0
0
0
0
0
0
0
0
0
0
0
0
0
0
0
0
0
0
0
1
1
0
0
0
0
0
0
0
0
0
0
0
0
0
0
0
0
0
0
0
0
1
1
0
0
0
0
0
0
0
0
0
0
0
0
0
0
0
0
0
0
0
0
0
0
0
0
0
0
0
0
0
0
0
0
0
1
1
0
0
0
0
0
0
0
0
0
0
0
0
0
0
0
0
0
0
0
0
1
1
0
0
0
0
0
0
0
0
0
0
0
0
0
0
0
0
0
0
0
0
0
0
0
0
0
0
0
0
0
0
0
0
0
1
1
0
0
0
0
0
0
0
0
0
0
0
0
0
0
0
0
0
0
0
0
1
1
0
0
0
0
0
0
0
0
0
0
0
0
0
0
0
0
0
0
0
0
0
0
0
0
0
0
0
0
0
0
0
0
0
1
1
0
0
0
0
0
0
0
0
0
0
0
0
0
0
0
0
0
0
0
0
0
1
1
0
0
0
0
0
0
0
0
0
0
0
0
0
0
0
0
0
0
0
0
0
0
0
0
0
0
0
0
0
0
0
0
0
0
1
1
0
0
0
0
0
0
0
0
0
0
0
0
0
0
0
0
0
0
0
0
0
0
0
0
0
0
0
0
0
0
0
0
0
0
0
0
0
0
0
0
0
0
0
0
0
0
0
0
0
0
0
0
0
0
0
0
0
1
1
0
0
0
0
0
0
0
0
0
0
0
0
0
0
0
0
0
0
0
0
0
0
0
0
0
0
0
0
0
0
0
0
0
0
0
0
0
0
0
0
0
0
0
0
0
0
0
0
0
0
0
0
0
0
0
0
0
1
1
0
0
0
0
0
0
0
0
0
0
0
0
0
0
0
0
0
0
0
0
0
0
0
0
0
0
0
0
0
0
0
0
0
0
0
0
0
0
0
0
0
0
0
0
0
0
0
0
0
0
0
0
0
0
0
0
0
1
1
0
0
0
0
0
0
0
0
0
0
0
0
0
0
0
0
0
0
0
0
0
0
0
0
0
0
0
0
0
0
0
0
0
0
0
0
0
0
0
0
0
0
0
0
0
0
0
0
0
0
0
0
0
0
0
0
0
1
1
0
0
0
0
0
0
0
0
0
0
0
0
0
0
0
0
0
0
0
0
0
0
0
0
0
0
0
0
0
0
0
0
0
0
0
0
0
0
0
0
0
0
0
0
0
0
0
0
0
0
0
0
0
0
0
0
0
1
1
0
0
0
0
0
0
0
0
0
0
0
0
0
0
0
0
0
0
0
0
0
0
0
0
0
0
0
0
0
0
0
0
0
0
0
0
0
0
0
0
0
0
0
0
0
0
0
0
0
0
0
0
0
0
0
0
0
1
1
0
0
0
0
0
0
0
0
0
0
0
0
0
0
0
0
0
0
0
0
0
0
0
0
0
0
0
0
0
0
0
0
0
0
0
0
0
0
0
0
0
0
0
0
0
0
0
0
0
0
0
0
0
0
0
0
0
1
1
0
0
0
0
0
0
0
0
0
0
0
0
0
0
0
0
0
0
0
0
0
0
0
0
0
0
0
0
0
0
0
0
0
0
0
0
0
0
0
0
0
0
0
0
0
0
0
0
0
0
0
0
0
0
0
0
0
1
1
0
0
0
0
0
0
0
0
0
0
0
0
0
0
0
0
0
0
0
0
0
0
0
0
0
0
0
0
0
0
0
0
0
0
0
0
0
0
0
0
0
0
0
0
0
0
0
0
0
0
0
0
0
0
0
0
0
1
1
0
0
0
0
0
0
0
0
0
0
0
0
0
0
0
0
0
0
0
0
0
0
0
0
0
0
0
0
0
0
0
0
0
0
0
0
0
0
0
0
0
0
0
0
0
0
0
0
0
0
0
0
0
0
0
0
0
1
1
0
0
0
0
0
0
0
0
0
0
0
0
0
0
0
0
0
0
0
0
0
1
1
0
0
0
0
0
0
0
0
0
0
0
0
0
0
0
0
0
0
0
0
0
0
0
0
0
0
0
0
0
0
0
0
0
0
1
1
0
0
0
0
0
0
0
0
0
0
0
0
0
0
0
0
0
0
0
0
1
1
0
0
0
0
0
0
0
0
0
0
0
0
0
0
0
0
0
0
0
0
0
0
0
0
0
0
0
0
0
0
0
0
0
1
1
0
0
0
0
0
0
0
0
0
0
0
0
0
0
0
0
0
0
0
0
1
1
0
0
0
0
0
0
0
0
0
0
0
0
0
0
0
0
0
0
0
0
0
0
0
0
0
0
0
0
0
0
0
0
0
1
1
0
0
0
0
0
0
0
0
0
0
0
0
0
0
0
0
0
0
0
0
1
1
0
0
0
0
0
0
0
0
0
0
0
0
0
0
0
0
0
0
0
0
0
0
0
0
0
0
0
0
0
0
0
0
0
1
1
0
0
0
0
0
0
0
0
0
0
0
0
0
0
0
0
0
0
0
0
1
1
0
0
0
0
0
0
0
0
0
0
0
0
0
0
0
0
0
0
0
0
0
0
0
0
0
0
0
0
0
0
0
0
0
1
1
0
0
0
0
0
0
0
0
0
0
0
0
0
0
0
0
0
0
0
0
1
1
0
0
0
0
0
0
0
0
0
0
0
0
0
0
0
0
0
0
0
0
0
0
0
0
0
0
0
0
0
0
0
0
0
1
1
0
0
0
0
0
0
0
0
0
0
0
0
0
0
0
0
0
0
0
0
1
1
0
0
0
0
0
0
0
0
0
0
0
0
0
0
0
0
0
0
0
0
0
0
0
0
0
0
0
0
0
0
0
0
0
1
1
0
0
0
0
0
0
0
0
0
0
0
0
0
0
0
0
0
0
0
0
1
1
0
0
0
0
0
0
0
0
0
0
0
0
0
0
0
0
0
0
0
0
0
0
0
0
0
0
0
0
0
0
0
0
0
1
1
0
0
0
0
0
0
0
0
0
0
0
0
0
0
0
0
0
0
0
0
1
1
0
0
0
0
0
0
0
0
0
0
0
0
0
0
0
0
0
0
0
0
0
0
0
0
0
0
0
0
0
0
0
0
0
1
1
0
0
0
0
0
0
0
0
0
0
0
0
0
0
0
0
0
0
0
0
1
1
0
0
0
0
0
0
0
0
0
0
0
0
0
0
0
0
0
0
0
0
0
0
0
0
0
0
0
0
0
0
0
0
0
1
1
0
0
0
0
0
0
0
0
0
0
0
0
0
0
0
0
0
0
0
0
1
1
0
0
0
0
0
0
0
0
0
0
0
0
0
0
0
0
0
0
0
0
0
0
0
0
0
0
0
0
0
0
0
0
0
1
1
0
0
0
0
0
0
0
0
0
0
0
0
0
0
0
0
0
0
0
0
1
1
0
0
0
0
0
0
0
0
0
0
0
0
0
0
0
0
0
0
0
0
0
0
0
0
0
0
0
0
0
0
0
0
0
1
1
0
0
0
0
0
0
0
0
0
0
0
0
0
0
0
0
0
0
0
0
1
1
0
0
0
0
0
0
0
0
0
0
0
0
0
0
0
0
0
0
0
0
0
0
0
0
0
0
0
0
0
0
0
0
0
1
1
0
0
0
0
0
0
0
0
0
0
0
0
0
0
0
0
0
0
0
0
1
1
0
0
0
0
0
0
0
0
0
0
0
0
0
0
0
0
0
0
0
0
0
0
0
0
0
0
0
0
0
0
0
0
0
1
1
0
0
0
0
0
0
0
0
0
0
0
0
0
0
0
0
0
0
0
0
1
1
0
0
0
0
0
0
0
0
0
0
0
0
0
0
0
0
0
0
0
0
0
0
0
0
0
0
0
0
0
0
0
0
0
1
1
0
0
0
0
0
0
0
0
0
0
0
0
0
0
0
0
0
0
0
0
1
1
0
0
0
0
0
0
0
0
0
0
0
0
0
0
0
0
0
0
0
0
0
0
0
0
0
0
0
0
0
0
0
0
0
1
1
0
0
0
0
0
0
0
0
0
0
0
0
0
0
0
0
0
0
0
0
1
1
0
0
0
0
0
0
0
0
0
0
0
0
0
0
0
0
0
0
0
0
0
0
0
0
0
0
0
0
0
0
0
0
0
1
1
0
0
0
0
0
0
0
0
0
0
0
0
0
0
0
0
0
0
0
0
1
1
0
0
0
0
0
0
0
0
0
0
0
0
0
0
0
0
0
0
0
0
0
0
0
0
0
0
0
0
0
0
0
0
0
1
1
0
0
0
0
0
0
0
0
0
0
0
0
0
0
0
0
0
0
0
0
1
1
0
0
0
0
0
0
0
0
0
0
0
0
0
0
0
0
0
0
0
0
0
0
0
0
0
0
0
0
0
0
0
0
0
1
1
0
0
0
0
0
0
0
0
0
0
0
0
0
0
0
0
0
0
0
0
1
1
0
0
0
0
0
0
0
0
0
0
0
0
0
0
0
0
0
0
0
0
0
0
0
0
0
0
0
0
0
0
0
0
0
1
1
0
0
0
0
0
0
0
0
0
0
0
0
0
0
0
0
0
0
0
0
1
1
0
0
0
0
0
0
0
0
0
0
0
0
0
0
0
0
0
0
0
0
0
0
0
0
0
0
0
0
0
0
0
0
0
1
1
0
0
0
0
0
0
0
0
0
0
0
0
0
0
0
0
0
0
0
0
1
1
0
0
0
0
0
0
0
0
0
0
0
0
0
0
0
0
0
0
0
0
0
0
0
0
0
0
0
0
0
0
0
0
0
1
1
1
1
1
1
1
1
1
1
1
1
1
1
1
1
1
1
1
1
1
1
1
1
1
1
1
1
1
1
1
1
1
1
1
1
1
1
1
1
1
1
1
1
1
1
1
1
1
1
1
1
1
1
1
1
1
1
				</DataArray>
				<DataArray type="Float64" Name="h" NumberOfComponents="1" Format="ascii">
1.2119945899
1.2115591728
1.2116638079
1.2118704091
1.2121742729
1.2125684284
1.2130437368
1.2135891219
1.2141917284
1.2148371587
1.2155098251
1.2161932988
1.2168706839
1.2175250609
1.2181399634
1.2186998015
1.2191902707
1.2195988085
1.2199149245
1.2201304285
1.2202397358
1.2202397358
1.1680891026
1.1670856310
1.1672229552
1.1674986567
1.1679142671
1.1684720550
1.1691748060
1.1700254755
1.1710270080
1.1721818961
1.1734917359
1.1749569404
1.1765761779
1.1783459032
1.1802600212
1.1823093150
1.1844811450
1.1867593488
1.1891239926
1.1915515762
1.1940154560
1.1964860463
1.1989316276
1.2013192510
1.2036154451
1.2057873267
1.2078035401
1.2096348280
1.2112548407
1.2126405949
1.2137726280
1.2146353579
1.2152170684
1.2155098304
1.2155098304
1.2115591728
1.2110931493
1.2112067454
1.2114310988
1.2117611163
1.2121892502
1.2127056019
1.2132981610
1.2139529924
1.2146544734
1.2153856796
1.2161287690
1.2168653726
1.2175770844
1.2182459839
1.2188550841
1.2193887905
1.2198333964
1.2201774438
1.2204119909
1.2205309395
1.2202397358
1.1670856310
1.1661327133
1.1662787284
1.1665717833
1.1670132919
1.1676053249
1.1683503635
1.1692509268
1.1703093880
1.1715275225
1.1729060528
1.1744443673
1.1761399522
1.1779879244
1.1799807306
1.1821076050
1.1843543191
1.1867031573
1.1891327371
1.1916182985
1.1941321945
1.1966441751
1.1991222463
1.2015335998
1.2038452959
1.2060253391
1.2080435551
1.2098720747
1.2114860540
1.2128640185
1.2139879120
1.2148433791
1.2154196706
1.2157095198
1.2155098304
1.2112173833
1.2107673942
1.2108817554
1.2111076408
1.2114399558
1.2118711459
1.2123912929
1.2129883663
1.2136483821
1.2143556479
1.2150931439
1.2158429074
1.2165864084
1.2173050643
1.2179807495
1.2185962525
1.2191357487
1.2195853081
1.2199332703
1.2201705269
1.2202908611
1.2199937818
1.1672578699
1.1663073304
1.1664528731
1.1667449984
1.1671851601
1.1677754839
1.1685185187
1.1694168617
1.1704729699
1.1716887049
1.1730648736
1.1746009419
1.1762944626
1.1781406055
1.1801318531
1.1822574576
1.1845031889
1.1868513111
1.1892804038
1.1917656667
1.1942793765
1.1967912101
1.1992691163
1.2016802458
1.2039916348
1.2061712803
1.2081890159
1.2100169951
1.2116304052
1.2130078087
1.2141311899
1.2149862325
1.2155622212
1.2158519154
1.2156472082
1.2105368313
1.2101183843
1.2102342737
1.2104632205
1.2108001231
1.2112374013
1.2117651176
1.2123711780
1.2130415035
1.2137602513
1.2145102299
1.2152732223
1.2160303726
1.2167627701
1.2174518671
1.2180800107
1.2186309254
1.2190902453
1.2194459159
1.2196885049
1.2198115651
1.2195028759
1.1675971519
1.1666516025
1.1667962969
1.1670867520
1.1675244921
1.1681117400
1.1688511636
1.1697454975
1.1707973470
1.1720087258
1.1733805909
1.1749125463
1.1766022642
1.1784450097
1.1804333310
1.1825565121
1.1848003211
1.1871469861
1.1895750190
1.1920595441
1.1945727228
1.1970841096
1.1995615447
1.2019720982
1.2042827571
1.2064615002
1.2084781770
1.2103049850
1.2119171747
1.2132933848
1.2144156821
1.2152698292
1.2158451804
1.2161345481
1.2159200642
1.2095238103
1.2091513286
1.2092695061
1.2095030299
1.2098467780
1.2102931572
1.2108321615
1.2114516000
1.2121372193
1.2128730029
1.2136414453
1.2144239310
1.2152012225
1.2159538275
1.2166626060
1.2173092642
1.2178768748
1.2183504452
1.2187173568
1.2189677150
1.2190947450
1.2187689052
1.1681056382
1.1671676666
1.1673111066
1.1675990914
1.1680332485
1.1686159426
1.1693500143
1.1702383973
1.1712839101
1.1724887854
1.1738541956
1.1753799431
1.1770638707
1.1789013822
1.1808851193
1.1830044119
1.1852450269
1.1875891407
1.1900151705
1.1924981322
1.1950100270
1.1975202467
1.1999964807
1.2024056835
1.2047147755
1.2068917152
1.2089063793
1.2107310377
1.2123410425
1.2137151544
1.2148355705
1.2156881773
1.2162624380
1.2165512474
1.2163228441
1.2081881798
1.2078744165
1.2079956300
1.2082352268
1.2085880659
1.2090464976
1.2096004219
1.2102374556
1.2109432028
1.2117013045
1.2124938503
1.2133017605
1.2141052094
1.2148839826
1.2156181732
1.2162886712
1.2168777266
1.2173695617
1.2177508550
1.2180111404
1.2181432390
1.2177950381
1.1687860001
1.1678581540
1.1679998898
1.1682845186
1.1687138079
1.1692903127
1.1700171044
1.1708973798
1.1719342384
1.1731301983
1.1744867133
1.1760038418
1.1776796490
1.1795097158
1.1814868049
1.1836003084
1.1858359902
1.1881759607
1.1905985186
1.1930785418
1.1955878291
1.1980955739
1.2005692828
1.2029757714
1.2052818838
1.2074555653
1.2094667417
1.2112877898
1.2128942108
1.2142649411
1.2153823649
1.2162325443
1.2168050962
1.2170930317
1.2168474520
1.2065438632
1.2062994126
1.2064243978
1.2066715472
1.2070356609
1.2075089860
1.2080812483
1.2087399583
1.2094703500
1.2102556702
1.2110774975
1.2119162669
1.2127512681
1.2135614822
1.2143260868
1.2150250123
1.2156395529
1.2161530292
1.2165513212
1.2168233182
1.2169613901
1.2165861135
1.1696410156
1.1687257708
1.1688652927
1.1691455645
1.1695685352
1.1701370058
1.1708543425
1.1717240754
1.1727496543
1.1739339518
1.1752787656
1.1767844689
1.1784493968
1.1802693424
1.1822372169
1.1843424865
1.1865709120
1.1889045278
1.1913214906
1.1937965163
1.1963011652
1.1988044054
1.2012735380
1.2036752257
1.2059762414
1.2081445347
1.2101501122
1.2119655034
1.2135664142
1.2149320211
1.2160449608
1.2168915321
1.2174615569
1.2177482008
1.2174833063
1.2046092082
1.2044421797
1.2045716559
1.2048277386
1.2052051498
1.2056960044
1.2062899118
1.2069739980
1.2077331016
1.2085500198
1.2094058938
1.2102801517
1.2111512982
1.2119973488
1.2127964474
1.2135274591
1.2141706359
1.2147083306
1.2151255801
1.2154106042
1.2155553098
1.2151489201
1.1706735722
1.1697732697
1.1699099852
1.1701847391
1.1705997134
1.1711580215
1.1718633991
1.1727197877
1.1737310626
1.1749005197
1.1762303645
1.1777213401
1.1793720935
1.1811786687
1.1831341475
1.1852280773
1.1874462185
1.1897705211
1.1921789873
1.1946461490
1.1971432943
1.1996391555
1.2021008169
1.2044947877
1.2067877807
1.2089477834
1.2109449275
1.2127519503
1.2143448298
1.2157030560
1.2168095941
1.2176510483
1.2182175043
1.2185023255
1.2182172804
1.2024075002
1.2023229671
1.2024575557
1.2027238322
1.2031164210
1.2036272896
1.2042457256
1.2049583428
1.2057498133
1.2066023300
1.2074960158
1.2084095529
1.2093204624
1.2102056896
1.2110422580
1.2118079048
1.2124818047
1.2130453365
1.2134827111
1.2137815111
1.2139332150
1.2134925648
1.1718857109
1.1710024837
1.1711356939
1.1714035668
1.1718085841
1.1723542552
1.1730447758
1.1738845882
1.1748780758
1.1760290298
1.1773401257
1.1788125231
1.1804452252
1.1822345564
1.1841737866
1.1862525575
1.1884566306
1.1907678692
1.1931641013
1.1956196681
1.1981055635
1.2005902776
1.2030406860
1.2054231552
1.2077043624
1.2098523706
1.2118374960
1.2136327545
1.2152144710
1.2165625338
1.2176603197
1.2184948156
1.2190564349
1.2193387871
1.2190341698
1.1999666367
1.1999668353
1.2001071234
1.2003847730
1.2007942445
1.2013270904
1.2019723238
1.2027165921
1.2035435233
1.2044345169
1.2053689522
1.2063245291
1.2072776811
1.2082042001
1.2090799352
1.2098814776
1.2105869478
1.2111768110
1.2116345432
1.2119471936
1.2121059059
1.2116289590
1.1732779537
1.1724136327
1.1725425029
1.1728018775
1.1731946291
1.1737247738
1.1743970803
1.1752165975
1.1761883083
1.1773165730
1.1786045943
1.1800539985
1.1816641727
1.1834317443
1.1853501889
1.1874092563
1.1895947129
1.1918883278
1.1942677480
1.1967071179
1.1991771419
1.2016460633
1.2040805667
1.2064469027
1.2087117448
1.2108432837
1.2128120867
1.2145915291
1.2161583730
1.2174929948
1.2185792749
1.2194046620
1.2199599676
1.2202390978
1.2199169386
1.1973201304
1.1974040483
1.1975504397
1.1978402292
1.1982677017
1.1988244256
1.1994988967
1.2002767937
1.2011412306
1.2020727931
1.2030498800
1.2040490972
1.2050456968
1.2060142536
1.2069294192
1.2077666655
1.2085031412
1.2091185343
1.2095957638
1.2099215405
1.2100868473
1.2095728739
1.1748491533
1.1740051488
1.1741286652
1.1743775945
1.1747553329
1.1752665543
1.1759167464
1.1767116934
1.1776570763
1.1787578989
1.1800179502
1.1814393516
1.1830219015
1.1847625527
1.1866549984
1.1886890961
1.1908506252
1.1931212549
1.1954784628
1.1978962010
1.2003448899
1.2027925467
1.2052056822
1.2075504666
1.2097936188
1.2119035129
1.2138510437
1.2156100379
1.2171577907
1.2184752653
1.2195469374
1.2203608041
1.2209081420
1.2211832080
1.2208469424
1.1945055014
1.1946686219
1.1948216426
1.1951245780
1.1955714511
1.1961532873
1.1968580964
1.1976709799
1.1985742347
1.1995474792
1.2005680106
1.2016112309
1.2026511232
1.2036609945
1.2046142999
1.2054854581
1.2062507887
1.2068894221
1.2073840046
1.2077212245
1.2078921930
1.2073419348
1.1765955870
1.1757727794
1.1758896899
1.1761258019
1.1764852346
1.1769735337
1.1775971002
1.1783626054
1.1792765392
1.1803446274
1.1815712771
1.1829591279
1.1845084084
1.1862164016
1.1880770193
1.1900802394
1.1922118593
1.1944534651
1.1967823594
1.1991723173
1.2015934994
1.2040137126
1.2063993363
1.2087165071
1.2109320403
1.2130145604
1.2149353697
1.2166688415
1.2181929053
1.2194892092
1.2205429213
1.2213426694
1.2218802649
1.2221503628
1.2218046918
1.1915639788
1.1918006074
1.1919604007
1.1922767671
1.1927434420
1.1933510123
1.1940868884
1.1949354015
1.1958779165
1.1968929608
1.1979566063
1.1990429373
1.2001245773
1.2011735171
1.2021620268
1.2030635663
1.2038538234
1.2045116812
1.2050199297
1.2053657185
1.2055407530
1.2049565243
1.1785103860
1.1777090286
1.1778177531
1.1780381090
1.1783752490
1.1788359040
1.1794276440
1.1801582141
1.1810350321
1.1820645945
1.1832519574
1.1846002861
1.1861102220
1.1877793721
1.1896019013
1.1915678538
1.1936630813
1.1958690997
1.1981630561
1.2005185506
1.2029055207
1.2052915979
1.2076430710
1.2099261202
1.2121077124
1.2141567728
1.2160451063
1.2177477257
1.2192432920
1.2205142380
1.2215465157
1.2223294623
1.2228554866
1.2231196884
1.2227703562
1.1885394919
1.1888414245
1.1890080975
1.1893380895
1.1898248060
1.1904583332
1.1912254007
1.1921094705
1.1930908603
1.1941468812
1.1952522488
1.1963796038
1.1975001042
1.1985843586
1.1996034529
1.2005299876
1.2013392558
1.2020102952
1.2025266195
1.2028765628
1.2030531740
1.2024388673
1.1805836742
1.1798033246
1.1799018003
1.1801026604
1.1804125942
1.1808399790
1.1813939012
1.1820833969
1.1829169118
1.1839017470
1.1850435993
1.1863461360
1.1878103875
1.1894342708
1.1912121259
1.1931341706
1.1951862490
1.1973498209
1.1996018975
1.2019159267
1.2042616744
1.2066066354
1.2089170680
1.2111592402
1.2133003627
1.2153097557
1.2171597772
1.2188261714
1.2202884213
1.2215298335
1.2225372275
1.2233007206
1.2238133739
1.2240707682
1.2237242619
1.1854772278
1.1858349029
1.1860084525
1.1863520450
1.1868587170
1.1875179970
1.1883158590
1.1892347999
1.1902539772
1.1913493561
1.1924941514
1.1936594100
1.1948146850
1.1959290914
1.1969724857
1.1979166725
1.1987367930
1.1994125229
1.1999288781
1.2002764481
1.2004508473
1.1998118454
1.1828023342
1.1820418345
1.1821272223
1.1823036449
1.1825801708
1.1829675144
1.1834767309
1.1841183790
1.1849020077
1.1858357058
1.1869257453
1.1881762187
1.1895884789
1.1911606828
1.1928873433
1.1947588011
1.1967609294
1.1988751310
1.2010783806
1.2033438151
1.2056412894
1.2079381516
1.2102006716
1.2123952760
1.2144895057
1.2164531570
1.2182592211
1.2198842549
1.2213085861
1.2225164873
1.2234957306
1.2242372724
1.2247348682
1.2249846062
1.2246477996
1.1824225092
1.1828256593
1.1830059990
1.1833629983
1.1838892900
1.1845737945
1.1854016622
1.1863543359
1.1874097102
1.1885422577
1.1897235317
1.1909228038
1.1921078220
1.1932460102
1.1943058509
1.1952583208
1.1960785786
1.1967474634
1.1972524922
1.1975880824
1.1977544399
1.1970974255
1.1851503940
1.1844079078
1.1844760551
1.1846212214
1.1848562928
1.1851953454
1.1856519649
1.1862384375
1.1869653994
1.1878415984
1.1888737246
1.1900661424
1.1914204090
1.1929348551
1.1946041286
1.1964186335
1.1983642911
1.2004224859
1.2025701431
1.2047803041
1.2070228015
1.2092649517
1.2114730913
1.2136138584
1.2156551871
1.2175674273
1.2193242818
1.2209031481
1.2222853652
1.2234561944
1.2244043819
1.2251217648
1.2256028269
1.2258441800
1.2255239508
1.1794191057
1.1798574018
1.1800444055
1.1804145216
1.1809599442
1.1816689408
1.1825257805
1.1835107806
1.1846004999
1.1857677427
1.1869822269
1.1882112397
1.1894203936
1.1905751459
1.1916422449
1.1925916127
1.1933984133
1.1940450652
1.1945227870
1.1948320762
1.1949811211
1.1943137899
1.1876106114
1.1868837495
1.1869281766
1.1870322415
1.1872150927
1.1874956442
1.1878906425
1.1884141778
1.1890777632
1.1898904986
1.1908591862
1.1919882145
1.1932791617
1.1947304188
1.1963367030
1.1980884867
1.1999717481
1.2019678959
1.2040538653
1.2062026263
1.2083840781
1.2105655631
1.2127135475
1.2147949358
1.2167781103
1.2186340331
1.2203371789
1.2218658631
1.2232024241
1.2243331669
1.2252478579
1.2259392397
1.2264025411
1.2266349085
1.2263377389
1.1765079400
1.1769715421
1.1771650569
1.1775479682
1.1781120057
1.1788447536
1.1797295616
1.1807455383
1.1818677178
1.1830672158
1.1843117114
1.1855661777
1.1867939192
1.1879577035
1.1890220268
1.1899550770
1.1907316230
1.1913357405
1.1917635170
1.1920246077
1.1921408370
1.1914715426
1.1901665296
1.1894525727
1.1894624196
1.1895104911
1.1896263103
1.1898356043
1.1901587812
1.1906114559
1.1912054463
1.1919496072
1.1928503557
1.1939117391
1.1951351166
1.1965188003
1.1980575163
1.1997417975
1.2015577090
1.2034867310
1.2055058896
1.2075881030
1.2097033910
1.2118192372
1.2139022858
1.2159197646
1.2178405453
1.2196362457
1.2212821560
1.2227575395
1.2240457578
1.2251341704
1.2260135712
1.2266776107
1.2271222634
1.2273452109
1.2270768285
1.1737261979
1.1742062052
1.1744060548
1.1748014272
1.1753835872
1.1761394302
1.1770513632
1.1780972559
1.1792505984
1.1804806094
1.1817526866
1.1830291930
1.1842703621
1.1854359332
1.1864871835
1.1873895716
1.1881158115
1.1886508992
1.1889964244
1.1891748445
1.1892307686
1.1885681123
1.1928063358
1.1921025212
1.1920582309
1.1920267683
1.1920546894
1.1921767610
1.1924169029
1.1927911927
1.1933105452
1.1939825519
1.1948124976
1.1958035947
1.1969566924
1.1982698811
1.1997378459
1.2013511894
1.2030961108
1.2049542224
1.2069027297
1.2089145347
1.2109598215
1.2130063333
1.2150209449
1.2169712551
1.2188266654
1.2205594747
1.2221458033
1.2235658756
1.2248040730
1.2258488002
1.2266918614
1.2273277965
1.2277533092
1.2279666044
1.2277316775
1.1711062486
1.1715950510
1.1718010642
1.1722085968
1.1728084702
1.1735869161
1.1745254278
1.1756006462
1.1767844943
1.1780442239
1.1793427806
1.1806395377
1.1818911739
1.1830532447
1.1840823574
1.1849389740
1.1855919264
1.1860243351
1.1862414893
1.1862815671
1.1862253856
1.1855777811
1.1955303784
1.1948342380
1.1946981861
1.1945486858
1.1944590298
1.1944742840
1.1946198700
1.1949097125
1.1953516054
1.1959502949
1.1967089168
1.1976292532
1.1987113433
1.1999529444
1.2013486913
1.2028893030
1.2045611854
1.2063461720
1.2082217134
1.2101608163
1.2121338230
1.2141088178
1.2160529985
1.2179343701
1.2197228899
1.2213915457
1.2229172867
1.2242812802
1.2254689035
1.2264695714
1.2272760605
1.2278837612
1.2282900734
1.2284937023
1.2282955949
1.1686752055
1.1691667077
1.1693787366
1.1697981956
1.1704155053
1.1712162940
1.1721812155
1.1732857568
1.1745003402
1.1757902798
1.1771159970
1.1784336418
1.1796957626
1.1808526310
1.1818542101
1.1826530175
1.1832089946
1.1834972146
1.1835204122
1.1833304524
1.1830587941
1.1824340253
1.1983647066
1.1976744142
1.1973697686
1.1970378767
1.1967889595
1.1966748164
1.1967159391
1.1969187152
1.1972841624
1.1978119806
1.1985019404
1.1993537931
1.2003665464
1.2015376124
1.2028616525
1.2043296094
1.2059282101
1.2076396230
1.2094416343
1.2113074808
1.2132077024
1.2151107063
1.2169841415
1.2187964479
1.2205181466
1.2221229099
1.2235884893
1.2248969592
1.2260346419
1.2269919061
1.2277624413
1.2283424325
1.2287299285
1.2289241015
1.2287647192
1.1664549867
1.1669446966
1.1671626118
1.1675938208
1.1682284059
1.1690514887
1.1700430143
1.1711774736
1.1724239694
1.1737460660
1.1751018006
1.1764441070
1.1777211181
1.1788769035
1.1798527515
1.1805890513
1.1810293354
1.1811281983
1.1808681447
1.1802951169
1.1795898115
1.1789944627
1.2013877002
1.2007023442
1.2000637771
1.1994414961
1.1989778218
1.1987124416
1.1986452074
1.1987652249
1.1990614651
1.1995259794
1.2001540386
1.2009429701
1.2018907712
1.2029947006
1.2042496691
1.2056470455
1.2071740597
1.2088133418
1.2105431312
1.2123369894
1.2141657395
1.2159981692
1.2178023302
1.2195471707
1.2212037777
1.2227464809
1.2241537939
1.2254086378
1.2264982109
1.2274137588
1.2281498069
1.2287032632
1.2290727667
1.2292579147
1.2291376356
1.1644622761
1.1649472731
1.1651709362
1.1656137179
1.1662654437
1.1671108590
1.1681293882
1.1692947740
1.1705751214
1.1719326436
1.1733234495
1.1746977268
1.1759995399
1.1771666332
1.1781302881
1.1788147168
1.1791372231
1.1790110427
1.1783578377
1.1771492732
1.1755273585
1.1749660474
1.2047859701
1.2041056198
1.2027606846
1.2016705236
1.2009286509
1.2005029172
1.2003391409
1.2003931087
1.2006362221
1.2010516723
1.2016294831
1.2023646668
1.2032547092
1.2042972527
1.2054878970
1.2068187668
1.2082778278
1.2098483610
1.2115091187
1.2132341289
1.2149945888
1.2167596647
1.2184978545
1.2201785771
1.2217734792
1.2232575155
1.2246099008
1.2258143274
1.2268587820
1.2277352945
1.2284391342
1.2289678497
1.2293206012
1.2294973634
1.2294150515
1.1627088514
1.1631876872
1.1634169110
1.1638710002
1.1645396177
1.1654072891
1.1664531512
1.1676505260
1.1689669763
1.1703639931
1.1717965989
1.1732133544
1.1745556733
1.1757565532
1.1767384663
1.1774085175
1.1776497452
1.1773063632
1.1761620353
1.1739232613
1.1702736238
1.1697481440
1.2089750007
1.2083002622
1.2053780376
1.2035489230
1.2024880946
1.2019340837
1.2017192390
1.2017465649
1.2019652486
1.2023522969
1.2028964319
1.2035905434
1.2044325813
1.2054215934
1.2065545671
1.2078248389
1.2092214132
1.2107284067
1.2123251445
1.2139862602
1.2156833756
1.2173860916
1.2190633149
1.2206849259
1.2222230871
1.2236533202
1.2249554686
1.2261139049
1.2271173029
1.2279583722
1.2286330234
1.2291393539
1.2294769711
1.2296461738
1.2295992791
1.1612022919
1.1616748400
1.1619093394
1.1623742721
1.1630592349
1.1639486967
1.1650217568
1.1662516839
1.1676060374
1.1690463828
1.1705278430
1.1719991624
1.1734019203
1.1746687458
1.1757200124
1.1764551045
1.1767321504
1.1763200258
1.1747789790
1.1711568292
1.1632117666
1.1627305159
1.2148618714
1.2141922518
1.2075996656
1.2046999044
1.2034061724
1.2028603825
1.2027011475
1.2027740365
1.2030145582
1.2034004988
1.2039297328
1.2045977510
1.2054033308
1.2063481656
1.2074315891
1.2086486822
1.2099897968
1.2114401032
1.2129794537
1.2145832670
1.2162236403
1.2178705835
1.2194934088
1.2210624101
1.2225502077
1.2239328194
1.2251906264
1.2263085781
1.2272759244
1.2280859400
1.2287350673
1.2292218560
1.2295462815
1.2297089111
1.2296936337
1.1599467187
1.1604139800
1.1606533242
1.1611283262
1.1618286009
1.1627387032
1.1638379175
1.1650997949
1.1664923990
1.1679781566
1.1695135557
1.1710496840
1.1725322527
1.1739014025
1.1750923844
1.1760360778
1.1766614817
1.1769069618
1.1767570792
1.1763617492
1.1764991900
1.1834892425
1.1869083219
1.1793688082
1.1916895413
1.2009909949
1.2023532373
1.2027278796
1.2028743683
1.2030083244
1.2031890732
1.2034364462
1.2037630519
1.2041822556
1.2047143585
1.2053705657
1.2061515191
1.2070621255
1.2081049615
1.2092773616
1.2105712514
1.2119730599
1.2134630712
1.2150176105
1.2166092751
1.2182084520
1.2197848070
1.2213089940
1.2227540224
1.2240963182
1.2253167007
1.2264005829
1.2273376715
1.2281216869
1.2287494892
1.2292199803
1.2295334231
1.2296905964
1.2297021031
1.1589435438
1.1594074523
1.1596510290
1.1601349286
1.1608488407
1.1617775016
1.1629005269
1.1641919651
1.1656206907
1.1671504238
1.1687396119
1.1703424478
1.1719096038
1.1733891248
1.1747293321
1.1758829229
1.1768148418
1.1775206557
1.1780649301
1.1786672712
1.1799454514
1.1840037350
1.1868644748
1.1792879949
1.1891825817
1.1964116424
1.1995400134
1.2012421386
1.2022431635
1.2028985649
1.2033891622
1.2038156717
1.2042403895
1.2047063172
1.2052502829
1.2059024293
1.2066683450
1.2075539167
1.2085652146
1.2097019704
1.2109577404
1.2123198390
1.2137697725
1.2152842992
1.2168364741
1.2183970242
1.2199359198
1.2214241113
1.2228349152
1.2241450733
1.2253357355
1.2263926591
1.2273058848
1.2280694556
1.2286805330
1.2291382708
1.2294431381
1.2295960670
1.2296287545
1.1581924497
1.1586556773
1.1589026763
1.1593938586
1.1601190101
1.1610630830
1.1622060721
1.1635225921
1.1649824034
1.1665505931
1.1681876090
1.1698506329
1.1714947678
1.1730744456
1.1745472727
1.1758790051
1.1770513886
1.1780777307
1.1790280622
1.1800710343
1.1815525992
1.1841041396
1.1860817728
1.1849459037
1.1903126276
1.1951633504
1.1982596138
1.2003323631
1.2017273189
1.2026931978
1.2034002215
1.2039662084
1.2044740035
1.2049835477
1.2055419957
1.2061930463
1.2069504447
1.2078188851
1.2088072723
1.2099175084
1.2111444947
1.2124766203
1.2138963861
1.2153809414
1.2169036519
1.2184355033
1.2199467013
1.2214084168
1.2227941881
1.2240809749
1.2252501468
1.2262876838
1.2271838353
1.2279328439
1.2285320559
1.2289807772
1.2292796017
1.2294295573
1.2294773381
1.1576924316
1.1581581849
1.1584076120
1.1589040406
1.1596373399
1.1605926504
1.1617502998
1.1630853985
1.1645684626
1.1661657245
1.1678392903
1.1695487031
1.1712523683
1.1729091112
1.1744822973
1.1759446840
1.1772850225
1.1785201702
1.1797104107
1.1809765211
1.1825122498
1.1845200704
1.1863739193
1.1874630201
1.1910996621
1.1947437791
1.1975871064
1.1997247759
1.2012847265
1.2024167265
1.2032560267
1.2039148816
1.2044814858
1.2050237341
1.2055948662
1.2062454864
1.2069981041
1.2078562510
1.2088297562
1.2099220388
1.2111297597
1.2124423547
1.2138425078
1.2153076685
1.2168114272
1.2183249587
1.2198186337
1.2212637695
1.2226340396
1.2239065233
1.2250626987
1.2260886470
1.2269747028
1.2277151855
1.2283075114
1.2287510396
1.2290464095
1.2291946866
1.2292512859
1.1574436889
1.1579154804
1.1581661675
1.1586654001
1.1594030731
1.1603644171
1.1615299538
1.1628751327
1.1643710793
1.1659848479
1.1676795193
1.1694161037
1.1711550216
1.1728576463
1.1744904539
1.1760295649
1.1774662543
1.1788166419
1.1801312402
1.1815002757
1.1830458252
1.1848564870
1.1867164236
1.1885319670
1.1914685911
1.1945099239
1.1971331694
1.1992397372
1.2008522676
1.2020586454
1.2029652142
1.2036746191
1.2042745810
1.2048359061
1.2054149834
1.2060651886
1.2068142596
1.2076668107
1.2086326910
1.2097165618
1.2109156548
1.2122194411
1.2136107300
1.2150671956
1.2165625957
1.2180682357
1.2195545892
1.2209930501
1.2223573439
1.2236245743
1.2247762205
1.2257983463
1.2266812508
1.2274192099
1.2280095977
1.2284517297
1.2287462125
1.2288940928
1.2289533468
1.1574468403
1.1579282053
1.1581790477
1.1586787476
1.1594171828
1.1603795839
1.1615465023
1.1628934426
1.1643916715
1.1660085407
1.1677075383
1.1694502106
1.1711977062
1.1729122785
1.1745614286
1.1761222843
1.1775865875
1.1789692693
1.1803154628
1.1817014007
1.1832220734
1.1849407291
1.1867837474
1.1887781166
1.1914332819
1.1942023324
1.1966907759
1.1987495255
1.2003602561
1.2015827484
1.2025084095
1.2032337586
1.2038450363
1.2044135465
1.2049966468
1.2056484359
1.2063992376
1.2072540667
1.2082218924
1.2093077933
1.2105086656
1.2118139990