<VTKFile type="UnstructuredGrid" version="0.1">
	<UnstructuredGrid>
		<Piece NumberOfPoints="13548" NumberOfCells="3387">
			<CellData>
				<DataArray type="Int32" Name="ghost" NumberOfComponents="1" Format="ascii">
1
1
1
1
1
1
1
1
1
1
1
1
1
1
1
1
1
1
1
1
1
1
1
1
1
1
1
1
1
1
1
1
1
1
1
1
1
1
1
1
1
1
1
1
1
1
1
1
1
1
1
1
1
1
1
1
1
1
0
0
0
0
0
0
0
0
0
0
0
0
0
0
0
0
0
0
0
0
1
1
0
0
0
0
0
0
0
0
0
0
0
0
0
0
0
0
0
0
0
0
0
0
0
0
0
0
0
0
0
0
0
0
0
1
1
0
0
0
0
0
0
0
0
0
0
0
0
0
0
0
0
0
0
0
0
1
1
0
0
0
0
0
0
0
0
0
0
0
0
0
0
0
0
0
0
0
0
0
0
0
0
0
0
0
0
0
0
0
0
0
1
1
0
0
0
0
0
0
0
0
0
0
0
0
0
0
0
0
0
0
0
0
1
1
0
0
0
0
0
0
0
0
0
0
0
0
0
0
0
0
0
0
0
0
0
0
0
0
0
0
0
0
0
0
0
0
0
1
1
0
0
0
0
0
0
0
0
0
0
0
0
0
0
0
0
0
0
0
0
1
1
0
0
0
0
0
0
0
0
0
0
0
0
0
0
0
0
0
0
0
0
0
0
0
0
0
0
0
0
0
0
0
0
0
1
1
0
0
0
0
0
0
0
0
0
0
0
0
0
0
0
0
0
0
0
0
1
1
0
0
0
0
0
0
0
0
0
0
0
0
0
0
0
0
0
0
0
0
0
0
0
0
0
0
0
0
0
0
0
0
0
1
1
0
0
0
0
0
0
0
0
0
0
0
0
0
0
0
0
0
0
0
0
1
1
0
0
0
0
0
0
0
0
0
0
0
0
0
0
0
0
0
0
0
0
0
0
0
0
0
0
0
0
0
0
0
0
0
1
1
0
0
0
0
0
0
0
0
0
0
0
0
0
0
0
0
0
0
0
0
1
1
0
0
0
0
0
0
0
0
0
0
0
0
0
0
0
0
0
0
0
0
0
0
0
0
0
0
0
0
0
0
0
0
0
1
1
0
0
0
0
0
0
0
0
0
0
0
0
0
0
0
0
0
0
0
0
1
1
0
0
0
0
0
0
0
0
0
0
0
0
0
0
0
0
0
0
0
0
0
0
0
0
0
0
0
0
0
0
0
0
0
1
1
0
0
0
0
0
0
0
0
0
0
0
0
0
0
0
0
0
0
0
0
1
1
0
0
0
0
0
0
0
0
0
0
0
0
0
0
0
0
0
0
0
0
0
0
0
0
0
0
0
0
0
0
0
0
0
1
1
0
0
0
0
0
0
0
0
0
0
0
0
0
0
0
0
0
0
0
0
1
1
0
0
0
0
0
0
0
0
0
0
0
0
0
0
0
0
0
0
0
0
0
0
0
0
0
0
0
0
0
0
0
0
0
1
1
0
0
0
0
0
0
0
0
0
0
0
0
0
0
0
0
0
0
0
0
1
1
0
0
0
0
0
0
0
0
0
0
0
0
0
0
0
0
0
0
0
0
0
0
0
0
0
0
0
0
0
0
0
0
0
1
1
0
0
0
0
0
0
0
0
0
0
0
0
0
0
0
0
0
0
0
0
1
1
0
0
0
0
0
0
0
0
0
0
0
0
0
0
0
0
0
0
0
0
0
0
0
0
0
0
0
0
0
0
0
0
0
1
1
0
0
0
0
0
0
0
0
0
0
0
0
0
0
0
0
0
0
0
0
1
1
0
0
0
0
0
0
0
0
0
0
0
0
0
0
0
0
0
0
0
0
0
0
0
0
0
0
0
0
0
0
0
0
0
1
1
0
0
0
0
0
0
0
0
0
0
0
0
0
0
0
0
0
0
0
0
1
1
0
0
0
0
0
0
0
0
0
0
0
0
0
0
0
0
0
0
0
0
0
0
0
0
0
0
0
0
0
0
0
0
0
1
1
0
0
0
0
0
0
0
0
0
0
0
0
0
0
0
0
0
0
0
0
1
1
0
0
0
0
0
0
0
0
0
0
0
0
0
0
0
0
0
0
0
0
0
0
0
0
0
0
0
0
0
0
0
0
0
1
1
0
0
0
0
0
0
0
0
0
0
0
0
0
0
0
0
0
0
0
0
1
1
0
0
0
0
0
0
0
0
0
0
0
0
0
0
0
0
0
0
0
0
0
0
0
0
0
0
0
0
0
0
0
0
0
1
1
0
0
0
0
0
0
0
0
0
0
0
0
0
0
0
0
0
0
0
0
1
1
0
0
0
0
0
0
0
0
0
0
0
0
0
0
0
0
0
0
0
0
0
0
0
0
0
0
0
0
0
0
0
0
0
1
1
0
0
0
0
0
0
0
0
0
0
0
0
0
0
0
0
0
0
0
0
1
1
0
0
0
0
0
0
0
0
0
0
0
0
0
0
0
0
0
0
0
0
0
0
0
0
0
0
0
0
0
0
0
0
0
1
1
0
0
0
0
0
0
0
0
0
0
0
0
0
0
0
0
0
0
0
0
1
1
0
0
0
0
0
0
0
0
0
0
0
0
0
0
0
0
0
0
0
0
0
0
0
0
0
0
0
0
0
0
0
0
0
1
1
0
0
0
0
0
0
0
0
0
0
0
0
0
0
0
0
0
0
0
0
1
1
0
0
0
0
0
0
0
0
0
0
0
0
0
0
0
0
0
0
0
0
0
0
0
0
0
0
0
0
0
0
0
0
0
1
1
0
0
0
0
0
0
0
0
0
0
0
0
0
0
0
0
0
0
0
0
1
1
0
0
0
0
0
0
0
0
0
0
0
0
0
0
0
0
0
0
0
0
0
0
0
0
0
0
0
0
0
0
0
0
0
1
1
0
0
0
0
0
0
0
0
0
0
0
0
0
0
0
0
0
0
0
0
1
1
0
0
0
0
0
0
0
0
0
0
0
0
0
0
0
0
0
0
0
0
0
0
0
0
0
0
0
0
0
0
0
0
0
1
1
0
0
0
0
0
0
0
0
0
0
0
0
0
0
0
0
0
0
0
0
1
1
0
0
0
0
0
0
0
0
0
0
0
0
0
0
0
0
0
0
0
0
0
0
0
0
0
0
0
0
0
0
0
0
0
1
1
0
0
0
0
0
0
0
0
0
0
0
0
0
0
0
0
0
0
0
0
1
1
0
0
0
0
0
0
0
0
0
0
0
0
0
0
0
0
0
0
0
0
0
0
0
0
0
0
0
0
0
0
0
0
0
1
1
0
0
0
0
0
0
0
0
0
0
0
0
0
0
0
0
0
0
0
0
0
1
1
0
0
0
0
0
0
0
0
0
0
0
0
0
0
0
0
0
0
0
0
0
0
0
0
0
0
0
0
0
0
0
0
0
0
1
1
0
0
0
0
0
0
0
0
0
0
0
0
0
0
0
0
0
0
0
0
0
0
0
0
0
0
0
0
0
0
0
0
0
0
0
0
0
0
0
0
0
0
0
0
0
0
0
0
0
0
0
0
0
0
0
0
0
1
1
0
0
0
0
0
0
0
0
0
0
0
0
0
0
0
0
0
0
0
0
0
0
0
0
0
0
0
0
0
0
0
0
0
0
0
0
0
0
0
0
0
0
0
0
0
0
0
0
0
0
0
0
0
0
0
0
0
1
1
0
0
0
0
0
0
0
0
0
0
0
0
0
0
0
0
0
0
0
0
0
0
0
0
0
0
0
0
0
0
0
0
0
0
0
0
0
0
0
0
0
0
0
0
0
0
0
0
0
0
0
0
0
0
0
0
0
1
1
0
0
0
0
0
0
0
0
0
0
0
0
0
0
0
0
0
0
0
0
0
0
0
0
0
0
0
0
0
0
0
0
0
0
0
0
0
0
0
0
0
0
0
0
0
0
0
0
0
0
0
0
0
0
0
0
0
1
1
0
0
0
0
0
0
0
0
0
0
0
0
0
0
0
0
0
0
0
0
0
0
0
0
0
0
0
0
0
0
0
0
0
0
0
0
0
0
0
0
0
0
0
0
0
0
0
0
0
0
0
0
0
0
0
0
0
1
1
0
0
0
0
0
0
0
0
0
0
0
0
0
0
0
0
0
0
0
0
0
0
0
0
0
0
0
0
0
0
0
0
0
0
0
0
0
0
0
0
0
0
0
0
0
0
0
0
0
0
0
0
0
0
0
0
0
1
1
0
0
0
0
0
0
0
0
0
0
0
0
0
0
0
0
0
0
0
0
0
0
0
0
0
0
0
0
0
0
0
0
0
0
0
0
0
0
0
0
0
0
0
0
0
0
0
0
0
0
0
0
0
0
0
0
0
1
1
0
0
0
0
0
0
0
0
0
0
0
0
0
0
0
0
0
0
0
0
0
0
0
0
0
0
0
0
0
0
0
0
0
0
0
0
0
0
0
0
0
0
0
0
0
0
0
0
0
0
0
0
0
0
0
0
0
1
1
0
0
0
0
0
0
0
0
0
0
0
0
0
0
0
0
0
0
0
0
0
0
0
0
0
0
0
0
0
0
0
0
0
0
0
0
0
0
0
0
0
0
0
0
0
0
0
0
0
0
0
0
0
0
0
0
0
1
1
0
0
0
0
0
0
0
0
0
0
0
0
0
0
0
0
0
0
0
0
0
0
0
0
0
0
0
0
0
0
0
0
0
0
0
0
0
0
0
0
0
0
0
0
0
0
0
0
0
0
0
0
0
0
0
0
0
1
1
0
0
0
0
0
0
0
0
0
0
0
0
0
0
0
0
0
0
0
0
0
1
1
0
0
0
0
0
0
0
0
0
0
0
0
0
0
0
0
0
0
0
0
0
0
0
0
0
0
0
0
0
0
0
0
0
0
1
1
0
0
0
0
0
0
0
0
0
0
0
0
0
0
0
0
0
0
0
0
1
1
0
0
0
0
0
0
0
0
0
0
0
0
0
0
0
0
0
0
0
0
0
0
0
0
0
0
0
0
0
0
0
0
0
1
1
0
0
0
0
0
0
0
0
0
0
0
0
0
0
0
0
0
0
0
0
1
1
0
0
0
0
0
0
0
0
0
0
0
0
0
0
0
0
0
0
0
0
0
0
0
0
0
0
0
0
0
0
0
0
0
1
1
0
0
0
0
0
0
0
0
0
0
0
0
0
0
0
0
0
0
0
0
1
1
0
0
0
0
0
0
0
0
0
0
0
0
0
0
0
0
0
0
0
0
0
0
0
0
0
0
0
0
0
0
0
0
0
1
1
0
0
0
0
0
0
0
0
0
0
0
0
0
0
0
0
0
0
0
0
1
1
0
0
0
0
0
0
0
0
0
0
0
0
0
0
0
0
0
0
0
0
0
0
0
0
0
0
0
0
0
0
0
0
0
1
1
0
0
0
0
0
0
0
0
0
0
0
0
0
0
0
0
0
0
0
0
1
1
0
0
0
0
0
0
0
0
0
0
0
0
0
0
0
0
0
0
0
0
0
0
0
0
0
0
0
0
0
0
0
0
0
1
1
0
0
0
0
0
0
0
0
0
0
0
0
0
0
0
0
0
0
0
0
1
1
0
0
0
0
0
0
0
0
0
0
0
0
0
0
0
0
0
0
0
0
0
0
0
0
0
0
0
0
0
0
0
0
0
1
1
0
0
0
0
0
0
0
0
0
0
0
0
0
0
0
0
0
0
0
0
1
1
0
0
0
0
0
0
0
0
0
0
0
0
0
0
0
0
0
0
0
0
0
0
0
0
0
0
0
0
0
0
0
0
0
1
1
0
0
0
0
0
0
0
0
0
0
0
0
0
0
0
0
0
0
0
0
1
1
0
0
0
0
0
0
0
0
0
0
0
0
0
0
0
0
0
0
0
0
0
0
0
0
0
0
0
0
0
0
0
0
0
1
1
0
0
0
0
0
0
0
0
0
0
0
0
0
0
0
0
0
0
0
0
1
1
0
0
0
0
0
0
0
0
0
0
0
0
0
0
0
0
0
0
0
0
0
0
0
0
0
0
0
0
0
0
0
0
0
1
1
0
0
0
0
0
0
0
0
0
0
0
0
0
0
0
0
0
0
0
0
1
1
0
0
0
0
0
0
0
0
0
0
0
0
0
0
0
0
0
0
0
0
0
0
0
0
0
0
0
0
0
0
0
0
0
1
1
0
0
0
0
0
0
0
0
0
0
0
0
0
0
0
0
0
0
0
0
1
1
0
0
0
0
0
0
0
0
0
0
0
0
0
0
0
0
0
0
0
0
0
0
0
0
0
0
0
0
0
0
0
0
0
1
1
0
0
0
0
0
0
0
0
0
0
0
0
0
0
0
0
0
0
0
0
1
1
0
0
0
0
0
0
0
0
0
0
0
0
0
0
0
0
0
0
0
0
0
0
0
0
0
0
0
0
0
0
0
0
0
1
1
0
0
0
0
0
0
0
0
0
0
0
0
0
0
0
0
0
0
0
0
1
1
0
0
0
0
0
0
0
0
0
0
0
0
0
0
0
0
0
0
0
0
0
0
0
0
0
0
0
0
0
0
0
0
0
1
1
0
0
0
0
0
0
0
0
0
0
0
0
0
0
0
0
0
0
0
0
1
1
0
0
0
0
0
0
0
0
0
0
0
0
0
0
0
0
0
0
0
0
0
0
0
0
0
0
0
0
0
0
0
0
0
1
1
0
0
0
0
0
0
0
0
0
0
0
0
0
0
0
0
0
0
0
0
1
1
0
0
0
0
0
0
0
0
0
0
0
0
0
0
0
0
0
0
0
0
0
0
0
0
0
0
0
0
0
0
0
0
0
1
1
0
0
0
0
0
0
0
0
0
0
0
0
0
0
0
0
0
0
0
0
1
1
0
0
0
0
0
0
0
0
0
0
0
0
0
0
0
0
0
0
0
0
0
0
0
0
0
0
0
0
0
0
0
0
0
1
1
0
0
0
0
0
0
0
0
0
0
0
0
0
0
0
0
0
0
0
0
1
1
0
0
0
0
0
0
0
0
0
0
0
0
0
0
0
0
0
0
0
0
0
0
0
0
0
0
0
0
0
0
0
0
0
1
1
0
0
0
0
0
0
0
0
0
0
0
0
0
0
0
0
0
0
0
0
1
1
0
0
0
0
0
0
0
0
0
0
0
0
0
0
0
0
0
0
0
0
0
0
0
0
0
0
0
0
0
0
0
0
0
1
1
0
0
0
0
0
0
0
0
0
0
0
0
0
0
0
0
0
0
0
0
1
1
0
0
0
0
0
0
0
0
0
0
0
0
0
0
0
0
0
0
0
0
0
0
0
0
0
0
0
0
0
0
0
0
0
1
1
0
0
0
0
0
0
0
0
0
0
0
0
0
0
0
0
0
0
0
0
1
1
0
0
0
0
0
0
0
0
0
0
0
0
0
0
0
0
0
0
0
0
0
0
0
0
0
0
0
0
0
0
0
0
0
1
1
0
0
0
0
0
0
0
0
0
0
0
0
0
0
0
0
0
0
0
0
1
1
0
0
0
0
0
0
0
0
0
0
0
0
0
0
0
0
0
0
0
0
0
0
0
0
0
0
0
0
0
0
0
0
0
1
1
1
1
1
1
1
1
1
1
1
1
1
1
1
1
1
1
1
1
1
1
1
1
1
1
1
1
1
1
1
1
1
1
1
1
1
1
1
1
1
1
1
1
1
1
1
1
1
1
1
1
1
1
1
1
1
1
				</DataArray>
				<DataArray type="Float64" Name="h" NumberOfComponents="1" Format="ascii">
1.3289959911
1.3274880809
1.3279194537
1.3287830036
1.3300795012
1.3318087041
1.3339672082
1.3365458380
1.3395269731
1.3428811501
1.3465639339
1.3505130294
1.3546454533
1.3588567327
1.3630220971
1.3669994290
1.3706359064
1.3737776003
1.3762805929
1.3780233689
1.3789179782
1.3789179782
1.1241596561
1.1247282313
1.1247086088
1.1246585833
1.1245702780
1.1244319936
1.1242285054
1.1239418506
1.1235509985
1.1230319730
1.1223582403
1.1214998644
1.1204231002
1.1190901191
1.1174577052
1.1154767142
1.1130918817
1.1102415094
1.1068590615
1.1028762145
1.0982279580
1.0928617684
1.0867495245
1.0799026060
1.0723892980
1.0643486344
1.0559977991
1.0476279521
1.0395830286
1.0322267692
1.0259045802
1.0209089036
1.0174598460
1.0157009723
1.0157009723
1.3274880809
1.3261831329
1.3265876456
1.3273985924
1.3286187123
1.3302506524
1.3322946735
1.3347457755
1.3375907285
1.3408043186
1.3443458342
1.3481559694
1.3521539249
1.3562366906
1.3602806310
1.3641450055
1.3676791128
1.3707319558
1.3731633149
1.3748556582
1.3757242108
1.3789179782
1.1247282313
1.1251734178
1.1251635773
1.1251331856
1.1250746062
1.1249765077
1.1248241782
1.1246003440
1.1242848755
1.1238549395
1.1232854324
1.1225481688
1.1216114762
1.1204399206
1.1189929324
1.1172240926
1.1150806850
1.1125029204
1.1094248167
1.1057763280
1.1014872163
1.0964948291
1.0907548414
1.0842557676
1.0770371808
1.0692066436
1.0609527209
1.0525485374
1.0443384456
1.0367100023
1.0300551139
1.0247278399
1.0210125564
1.0191059716
1.0157009723
1.3282912442
1.3269608424
1.3273550624
1.3281455435
1.3293352726
1.3309272622
1.3329222695
1.3353159102
1.3380956775
1.3412371761
1.3447006087
1.3484277313
1.3523390585
1.3563332739
1.3602888544
1.3640677583
1.3675225126
1.3705057764
1.3728809684
1.3745337862
1.3753819149
1.3785957075
1.1236708465
1.1241952208
1.1241832480
1.1241485486
1.1240831979
1.1239754743
1.1238102237
1.1235697358
1.1232335177
1.1227785200
1.1221796521
1.1214090684
1.1204358859
1.1192260559
1.1177411706
1.1159379561
1.1137680349
1.1111773336
1.1081070367
1.1044955776
1.1002820194
1.0954127930
1.0898507687
1.0835874675
1.0766586521
1.0691591706
1.0612555356
1.0531919125
1.0452825725
1.0378916267
1.0314009436
1.0261702707
1.0225014726
1.0206117394
1.0170726194
1.3298562977
1.3284784403
1.3288526454
1.3296033056
1.3307338513
1.3322479560
1.3341472748
1.3364285770
1.3390807203
1.3420808883
1.3453910739
1.3489551470
1.3526962623
1.3565164429
1.3602984380
1.3639095216
1.3672086322
1.3700554860
1.3723206003
1.3738960267
1.3747041757
1.3779571906
1.1215758246
1.1222470053
1.1222315588
1.1221898354
1.1221133571
1.1219896621
1.1218027741
1.1215341975
1.1211628305
1.1206653355
1.1200168114
1.1191902615
1.1181565279
1.1168844183
1.1153398138
1.1134854962
1.1112812306
1.1086834234
1.1056461111
1.1021226073
1.0980679383
1.0934437420
1.0882245215
1.0824061034
1.0760170324
1.0691301448
1.0618744468
1.0544448192
1.0471035075
1.0401723327
1.0340121787
1.0289880880
1.0254281860
1.0235825784
1.0197910701
1.3321320839
1.3306881454
1.3310338108
1.3317276256
1.3327735364
1.3341759994
1.3359377794
1.3380571090
1.3405246689
1.3433198132
1.3464071022
1.3497335166
1.3532261665
1.3567921050
1.3603204722
1.3636865125
1.3667585538
1.3694065835
1.3715114242
1.3729742313
1.3737242279
1.3770331936
1.1184551131
1.1193223463
1.1193033271
1.1192543699
1.1191662267
1.1190254243
1.1188148979
1.1185151709
1.1181044739
1.1175593214
1.1168553967
1.1159672531
1.1148685124
1.1135322890
1.1119306328
1.1100347011
1.1078151428
1.1052419367
1.1022852667
1.0989165973
1.0951098535
1.0908440925
1.0861065616
1.0808970719
1.0752349412
1.0691671498
1.0627793411
1.0562090016
1.0496559400
1.0433875689
1.0377316844
1.0330490667
1.0296889572
1.0279332904
1.0238016721
1.3350453790
1.3335214429
1.3338316635
1.3344547664
1.3353951289
1.3366579036
1.3382469080
1.3401618866
1.3423955109
1.3449296928
1.3477321958
1.3507540349
1.3539275285
1.3571664889
1.3603685844
1.3634195745
1.3661999723
1.3685929914
1.3704925010
1.3718111722
1.3724867769
1.3758648068
1.1143598341
1.1154444991
1.1154237191
1.1153711488
1.1152765871
1.1151253370
1.1148990684
1.1145772468
1.1141375203
1.1135565408
1.1128110899
1.1118780197
1.1107346986
1.1093596980
1.1077325061
1.1058339438
1.1036467217
1.1011552967
1.0983464515
1.0952096557
1.0917369346
1.0879234300
1.0837676542
1.0792724347
1.0744481881
1.0693182310
1.0639286796
1.0583635860
1.0527616266
1.0473313420
1.0423555249
1.0381726175
1.0351329084
1.0335331971
1.0290146598
1.3385051544
1.3368930849
1.3371628103
1.3377049604
1.3385241040
1.3396257805
1.3410145462
1.3426913813
1.3446508507
1.3468775414
1.3493428592
1.3520026809
1.3547957780
1.3576443582
1.3604567727
1.3631316708
1.3655643707
1.3676538044
1.3693092449
1.3704567690
1.3710440950
1.3744997015
1.1094020551
1.1106907334
1.1106724563
1.1106247726
1.1105363219
1.1103909506
1.1101688725
1.1098484122
1.1094067065
1.1088207868
1.1080689377
1.1071308367
1.1059881683
1.1046254760
1.1030300078
1.1011922096
1.0991062816
1.0967698868
1.0941843227
1.0913541946
1.0882862142
1.0849881955
1.0814674212
1.0777293672
1.0737785651
1.0696218776
1.0652769573
1.0607871643
1.0562402756
1.0517883115
1.0476590576
1.0441454453
1.0415670889
1.0402045984
1.0352985195
1.3424084614
1.3407066401
1.3409327135
1.3413873969
1.3420750783
1.3430011880
1.3441704686
1.3455846193
1.3472396725
1.3491227757
1.3512091972
1.3534603469
1.3558226066
1.3582282219
1.3605981649
1.3628462662
1.3648848702
1.3666307916
1.3680104965
1.3689649154
1.3694527155
1.3729890315
1.1037637151
1.1052068749
1.1051980607
1.1051690736
1.1051070667
1.1049940397
1.1048083762
1.1045269689
1.1041262748
1.1035836503
1.1028789100
1.1019945850
1.1009165915
1.0996351151
1.0981444253
1.0964432720
1.0945352998
1.0924285113
1.0901350446
1.0876703712
1.0850514818
1.0822950956
1.0794152334
1.0764210128
1.0733163297
1.0701017950
1.0667813137
1.0633745772
1.0599334529
1.0565603951
1.0534211143
1.0507390910
1.0487660299
1.0477268464
1.0424778992
1.3466450842
1.3448588309
1.3450398590
1.3454040488
1.3459551643
1.3466979083
1.3476364889
1.3487725976
1.3501031243
1.3516173610
1.3532944735
1.3551018779
1.3569945916
1.3589163652
1.3608026414
1.3625843702
1.3641928808
1.3655645209
1.3666442977
1.3673889618
1.3677687563
1.3713830064
1.0976876301
1.0992057862
1.0992159624
1.0992244565
1.0992163538
1.0991710828
1.0990644332
1.0988711460
1.0985663616
1.0981271926
1.0975344388
1.0967728734
1.0958318411
1.0947060479
1.0933951991
1.0919041675
1.0902431920
1.0884270929
1.0864747864
1.0844083263
1.0822510155
1.0800256119
1.0777520898
1.0754455693
1.0731157530
1.0707679632
1.0684073794
1.0660472297
1.0637191510
1.0614847671
1.0594434753
1.0577282142
1.0564869570
1.0558488920
1.0503398988
1.3511019509
1.3492435758
1.3493796777
1.3496533795
1.3500673581
1.3506249393
1.3513289985
1.3521803809
1.3531760531
1.3543068939
1.3555557302
1.3568962772
1.3582929612
1.3597023089
1.3610757828
1.3623631363
1.3635162034
1.3644921160
1.3652553053
1.3657788865
1.3660449588
1.3697281778
1.0914474455
1.0929441849
1.0929850209
1.0930538077
1.0931325698
1.0931969171
1.0932186957
1.0931691644
1.0930208924
1.0927495663
1.0923358293
1.0917655085
1.0910300359
1.0901270418
1.0890597081
1.0878366316
1.0864717982
1.0849836130
1.0833943354
1.0817292952
1.0800154072
1.0782800078
1.0765495265
1.0748482729
1.0731982142
1.0716193044
1.0701309374
1.0687543967
1.0675143848
1.0664396077
1.0655608178
1.0649043653
1.0644859443
1.0643063527
1.0586463602
1.3556680327
1.3537564949
1.3538489994
1.3540346752
1.3543147029
1.3546904222
1.3551626058
1.3557304044
1.3563900053
1.3571331611
1.3579459798
1.3588084703
1.3596949891
1.3605757574
1.3614194908
1.3621960224
1.3628788376
1.3634466955
1.3638839427
1.3641802382
1.3643295315
1.3680665207
1.0853029078
1.0866813101
1.0867661579
1.0869210295
1.0871233042
1.0873428145
1.0875453702
1.0876967018
1.0877649020
1.0877224890
1.0875483568
1.0872278731
1.0867530335
1.0861227820
1.0853419969
1.0844210101
1.0833753762
1.0822247962
1.0809926429
1.0797056112
1.0783929800
1.0770865046
1.0758204370
1.0746315833
1.0735597107
1.0726471651
1.0719371158
1.0714692002
1.0712703034
1.0713414868
1.0716433606
1.0720855804
1.0725340316
1.0728415901
1.0671515107
1.3602371310
1.3582973294
1.3583484837
1.3584504574
1.3586026180
1.3588038660
1.3590522482
1.3593443909
1.3596748750
1.3600355379
1.3604152187
1.3607999569
1.3611742148
1.3615224320
1.3618313756
1.3620918254
1.3622996648
1.3624557679
1.3625645660
1.3626321589
1.3626640947
1.3664335958
1.0794570584
1.0806346897
1.0807784992
1.0810478524
1.0814130579
1.0818352839
1.0822713265
1.0826785831
1.0830181742
1.0832573087
1.0833713473
1.0833436996
1.0831656246
1.0828361965
1.0823608430
1.0817504825
1.0810210974
1.0801926059
1.0792885934
1.0783365547
1.0773681027
1.0764201481
1.0755364783
1.0747692575
1.0741801343
1.0738389901
1.0738185489
1.0741824198
1.0749639764
1.0761384579
1.0775949806
1.0791223944
1.0804316304
1.0812236918
1.0756222407
1.3647100091
1.3627716974
1.3627844378
1.3628084455
1.3628410657
1.3628783972
1.3629153190
1.3629453588
1.3629608068
1.3629528165
1.3629121000
1.3628302192
1.3627015571
1.3625248583
1.3623052527
1.3620549051
1.3617924532
1.3615410858
1.3613252436
1.3611671359
1.3610834416
1.3648585133
1.0740248983
1.0749435093
1.0751635089
1.0755793107
1.0761504816
1.0768254027
1.0775478299
1.0782632464
1.0789228227
1.0794861335
1.0799233204
1.0802146851
1.0803500148
1.0803280761
1.0801545930
1.0798409381
1.0794034864
1.0788624489
1.0782418659
1.0775705079
1.0768831155
1.0762229539
1.0756449972
1.0752188750
1.0750305874
1.0751801030
1.0757718745
1.0768946839
1.0785881318
1.0808001312
1.0833470096
1.0858983360
1.0880166704
1.0892619290
1.0838542192
1.3689972155
1.3670935450
1.3670712933
1.3670240900
1.3669471756
1.3668336854
1.3666749884
1.3664611293
1.3661814969
1.3658259541
1.3653863824
1.3648590432
1.3642474175
1.3635641960
1.3628326576
1.3620864623
1.3613669648
1.3607196801
1.3601888109
1.3598121498
1.3596167688
1.3633654171
1.0690186033
1.0696469557
1.0699644711
1.0705650863
1.0713919979
1.0723749624
1.0734393973
1.0745144983
1.0755381603
1.0764600453
1.0772437633
1.0778659831
1.0783150869
1.0785900054
1.0786974729
1.0786501698
1.0784657954
1.0781658461
1.0777758834
1.0773271017
1.0768586124
1.0764213700
1.0760828983
1.0759315669
1.0760786917
1.0766545892
1.0777945109
1.0796098793
1.0821425083
1.0853089431
1.0888518851
1.0923281935
1.0951682879
1.0968132635
1.0916833015
1.3730204416
1.3711861812
1.3711327104
1.3710217950
1.3708466068
1.3705973037
1.3702616380
1.3698258666
1.3692760243
1.3685999940
1.3677901824
1.3668468747
1.3657815924
1.3646199244
1.3634023291
1.3621837417
1.3610280893
1.3600028796
1.3591719998
1.3585880136
1.3582872239
1.3619733061
1.0643500624
1.0646808931
1.0651248882
1.0659604321
1.0671054369
1.0684627240
1.0699324929
1.0714224852
1.0728538292
1.0741643106
1.0753103504
1.0762653205
1.0770172233
1.0775665915
1.0779228049
1.0781015491
1.0781235208
1.0780131241
1.0777990115
1.0775163020
1.0772098937
1.0769397041
1.0767868050
1.0768588221
1.0772920881
1.0782456736
1.0798822471
1.0823304971
1.0856277954
1.0896538660
1.0940780008
1.0983551648
1.1018066327
1.1037839802
1.0989913315
1.3767139303
1.3749834234
1.3749027862
1.3747362340
1.3744749864
1.3741063350
1.3736144350
1.3729816433
1.3721903186
1.3712258093
1.3700801778
1.3687566136
1.3672738116
1.3656691261
1.3639994972
1.3623393980
1.3607750557
1.3593960380
1.3582853099
1.3575097021
1.3571126903
1.3606971772
1.0598420487
1.0598856466
1.0604990337
1.0616401618
1.0631870744
1.0650037563
1.0669564319
1.0689255768
1.0708122557
1.0725411485
1.0740618506
1.0753458910
1.0763829993
1.0771777123
1.0777445078
1.0781044328
1.0782833582
1.0783105816
1.0782196520
1.0780512261
1.0778573905
1.0777081378
1.0776987275
1.0779559325
1.0786398266
1.0799352514
1.0820271492
1.0850542155
1.0890412717
1.0938255228
1.0990046511
1.1039457866
1.1078877430
1.1101244542
1.1057044287
1.3800267625
1.3784317496
1.3783282324
1.3781145734
1.3777801949
1.3773097011
1.3766837779
1.3758808640
1.3748794406
1.3736618102
1.3722188972
1.3705556593
1.3686965720
1.3666893818
1.3646060988
1.3625404153
1.3606002447
1.3588970851
1.3575329577
1.3565873279
1.3561077976
1.3595504836
1.0552390866
1.0550160474
1.0558673488
1.0574192875
1.0594859933
1.0618757694
1.0644102061
1.0669366584
1.0693338186
1.0715135099
1.0734204442
1.0750272038
1.0763285520
1.0773363542
1.0780733102
1.0785686437
1.0788558519
1.0789712476
1.0789551075
1.0788551767
1.0787319968
1.0786665319
1.0787685443
1.0791833606
1.0800928172
1.0817036043
1.0842167056
1.0877726077
1.0923751292
1.0978140064
1.1036189611
1.1090854278
1.1133972876
1.1158215795
1.1117878508
1.3829241895
1.3814916272
1.3813696841
1.3811177471
1.3807235997
1.3801693459
1.3794323680
1.3784872475
1.3773084226
1.3758747023
1.3741750472
1.3722150092
1.3700233273
1.3676565651
1.3652005009
1.3627672648
1.3604867174
1.3584931500
1.3569084617
1.3558235444
1.3552839923
1.3585458131
1.0502095606
1.0497449478
1.0509512281
1.0530770850
1.0558336671
1.0589506855
1.0621934893
1.0653720230
1.0683429293
1.0710082152
1.0733120710
1.0752328855
1.0767750572
1.0779619278
1.0788280224
1.0794137877
1.0797628542
1.0799206086
1.0799357444
1.0798644526
1.0797767734
1.0797652869
1.0799542783
1.0805066677
1.0816236133
1.0835291967
1.0864337396
1.0904711739
1.0956164418
1.1016082947
1.1079139338
1.1137740789
1.1183437295
1.1208900495
1.1172386705
1.3853888053
1.3841388919
1.3840030403
1.3837217254
1.3832812279
1.3826613141
1.3818362024
1.3807766820
1.3794530202
1.3778400686
1.3759239788
1.3737096090
1.3712283271
1.3685438019
1.3657542483
1.3629899315
1.3604038506
1.3581560249
1.3563914260
1.3552124087
1.3546528311
1.3576984006
1.0443294732
1.0436494849
1.0454221190
1.0483826163
1.0520771956
1.0561289390
1.0602380205
1.0641780889
1.0677898201
1.0709733148
1.0736801099
1.0759013838
1.0776570199
1.0789865566
1.0799401153
1.0805723482
1.0809393287
1.0810973131
1.0811048085
1.0810275050
1.0809456871
1.0809639076
1.0812207111
1.0818953698
1.0832056542
1.0853883942
1.0886566033
1.0931298674
1.0987476340
1.1051959455
1.1118863811
1.1180216100
1.1227506782
1.1253627216
1.1220765342
1.3874213552
1.3863660561
1.3862207273
1.3859186987
1.3854448471
1.3847767181
1.3838854595
1.3827380820
1.3813005159
1.3795431667
1.3774484263
1.3750190084
1.3722870120
1.3693212514
1.3662309653
1.3631647504
1.3603017524
1.3578342646
1.3559393467
1.3547363962
1.3542348974
1.3570354919
1.0370302658
1.0361614534
1.0389037985
1.0431258225
1.0481197492
1.0533778884
1.0585387740
1.0633543062
1.0676662817
1.0713883696
1.0744917781
1.0769896822
1.0789241247
1.0803555985
1.0813532582
1.0819884712
1.0823315600
1.0824509661
1.0824159642
1.0823023933
1.0822011633
1.0822288317
1.0825376592
1.0833218085
1.0848128415
1.0872557969
1.0908602242
1.0957246412
1.1017480615
1.1085639470
1.1155361053
1.1218445243
1.1266511224
1.1292831935
1.1263359921
1.3890401291
1.3881823735
1.3880317148
1.3877170082
1.3872217908
1.3865214558
1.3855841183
1.3843729615
1.3828493245
1.3809785535
1.3787381565
1.3761269036
1.3731752223
1.3699544403
1.3665828733
1.3632278197
1.3600998231
1.3574363302
1.3554680257
1.3543544478
1.3540762820
1.3566129687
1.0274726785
1.0264435863
1.0309696152
1.0371651503
1.0439777557
1.0507791981
1.0571864491
1.0629726232
1.0680159172
1.0722689072
1.0757391823
1.0784724223
1.0805392699
1.0820250461
1.0830203316
1.0836147329
1.0838937752
1.0839386941
1.0838299023
1.0836535475
1.0835111297
1.0835308906
1.0838779839
1.0847598315
1.0864189819
1.0891044753
1.0930170583
1.0982288683
1.1045954102
1.1116993787
1.1188650378
1.1252630453
1.1300825244
1.1326996495
1.1300597919
1.3902790511
1.3896127394
1.3894603956
1.3891400013
1.3886337976
1.3879150619
1.3869488722
1.3856944736
1.3841082575
1.3821497061
1.3797899718
1.3770214977
1.3738696186
1.3704040748
1.3667484754
1.3630878763
1.3596708922
1.3568020650
1.3548119634
1.3539718724
1.3542889544
1.3565557550
1.0142593436
1.0131031106
1.0211410160
1.0305140465
1.0398652952
1.0485831991
1.0563935065
1.0631850041
1.0689318203
1.0736598099
1.0774313943
1.0803340406
1.0824712829
1.0839549417
1.0848975020
1.0854067929
1.0855833027
1.0855207622
1.0853103972
1.0850482764
1.0848460115
1.0848428466
1.0852157390
1.0861836156
1.0879973259
1.0909062124
1.0950979146
1.1006144681
1.1072666542
1.1145895962
1.1218760842
1.1282983451
1.1330826083
1.1356598125
1.1332930502
1.3911840186
1.3906948861
1.3905437996
1.3902232952
1.3897143661
1.3889882123
1.3880068623
1.3867254789
1.3850950585
1.3830681991
1.3806077599
1.3776965470
1.3743496903
1.3706283246
1.3666531600
1.3626205378
1.3588202726
1.3556537081
1.3536397992
1.3533551942
1.3551428334
1.3571498599
0.9948327688
0.9935868807
1.0089689823
1.0235411402
1.0363288616
1.0472651745
1.0565022549
1.0642098631
1.0705365446
1.0756157405
1.0795777581
1.0825553219
1.0846843106
1.0861010120
1.0869375621
1.0873180182
1.0873561750
1.0871569468
1.0868213137
1.0864543305
1.0861768155
1.0861379987
1.0865253221
1.0875673986
1.0895209060
1.0926324220
1.0970733399
1.1028535092
1.1097394937
1.1172230568
1.1245729892
1.1309713545
1.1356873233
1.1382084599
1.1360800066
1.3918084356
1.3914755473
1.3913278010
1.3910110831
1.3905052170
1.3897794021
1.3887926462
1.3874959088
1.3858343137
1.3837523906
1.3812022974
1.3781527734
1.3746012106
1.3705883027
1.3662147526
1.3616670167
1.3572597307
1.3535096302
1.3512628556
1.3518713979
1.3572450478
1.3590220591
0.9655700434
0.9642516003
0.9950958281
1.0176685388
1.0345382030
1.0475972920
1.0579697088
1.0662929327
1.0729434318
1.0781700629
1.0821648995
1.0850969700
1.0871261616
1.0884063012
1.0890837765
1.0892948089
1.0891634602
1.0888035747
1.0883241733
1.0878378937
1.0874734995
1.0873889203
1.0877805984
1.0888850192
1.0909625066
1.0942545238
1.0989142887
1.1049189597
1.1119928834
1.1195893275
1.1269596481
1.1333014156
1.1379290522
1.1403854413
1.1384614038
1.3922078127
1.3920053796
1.3918621162
1.3915512895
1.3910516825
1.3903306476
1.3893442992
1.3880393852
1.3863547883
1.3842258321
1.3815913745
1.3784008094
1.3746237537
1.3702622587
1.3653651814
1.3600565335
1.3546000513
1.3495598992
1.3462264411
1.3477385895
1.3618767966
1.3634795937
0.9348144548
0.9333534640
0.9878927886
1.0177771502
1.0369658599
1.0507487720
1.0613107870
1.0696295528
1.0761936241
1.0812906784
1.0851275033
1.0878806927
1.0897160899
1.0907931875
1.0912645460
1.0912729242
1.0909486458
1.0904116014
1.0897767118
1.0891624941
1.0887041715
1.0885669197
1.0889546201
1.0901098996
1.0922949069
1.0957444011
1.1005926895
1.1067851860
1.1140072554
1.1216788695
1.1290394299
1.1353052740
1.1398354664
1.1422245283
1.1404727547
1.3924333510
1.3923325078
1.3921939317
1.3918893628
1.3913967358
1.3906818140
1.3896981041
1.3883883641
1.3866852067
1.3845140897
1.3817985458
1.3784637111
1.3744403393
1.3696670960
1.3640842397
1.3576172902
1.3501363883
1.3413463985
1.3304820271
1.3153616548
1.2891332183
1.2125303068
1.0968000983
1.0919878545
1.0480861805
1.0195690133
1.0248898578
1.0361166756
1.0475840364
1.0579154391
1.0667859825
1.0741734202
1.0801502404
1.0848237895
1.0883189758
1.0907741385
1.0923372911
1.0931599038
1.0933920759
1.0931772880
1.0926480351
1.0919273035
1.0911337117
1.0903899022
1.0898360238
1.0896430114
1.0900206515
1.0912161477
1.0934920683
1.0970756501
1.1020826848
1.1084290712
1.1157654025
1.1234836383
1.1308155595
1.1369974003
1.1414299346
1.1437539358
1.1421444231
1.3925272890
1.3924974481
1.3923629053
1.3920634202
1.3915763309
1.3908661810
1.3898843535
1.3885701868
1.3868506382
1.3846418671
1.3818524531
1.3783832745
1.3741257628
1.3689549363
1.3627060685
1.3551284339
1.3457928969
1.3338964136
1.3178590048
1.2944813249
1.2572636528
1.1894981466
1.0947686159
1.0898276826
1.0684363633
1.0501827326
1.0469197304
1.0510799275
1.0580470754
1.0656258670
1.0727941103
1.0790847005
1.0843098434
1.0884309218
1.0914918278
1.0935861256
1.0948370609
1.0953821644
1.0953642627
1.0949237216
1.0941921996
1.0932934344
1.0923478899
1.0914807978
1.0908358334
1.0905883043
1.0909524964
1.0921788604
1.0945294289
1.0982238474
1.1033608137
1.1098300333
1.1172522732
1.1249966724
1.1322906125
1.1383895529
1.1427312608
1.1449962129
1.1435012154
1.3925187780
1.3925283732
1.3923964990
1.3920996988
1.3916149987
1.3909061746
1.3899231352
1.3886026869
1.3868673636
1.3846257848
1.3817742099
1.3781935649
1.3737436981
1.3682512389
1.3614790109
1.3530730020
1.3424725429
1.3287530081
1.3103851435
1.2849301679
1.2489010641
1.1976194537
1.1385278537
1.1121411975
1.0898805867
1.0729959027
1.0653683492
1.0646790054
1.0679598271
1.0730392337
1.0785612268
1.0837497128
1.0882040917
1.0917554736
1.0943716615
1.0961025460
1.0970461231
1.0973247386
1.0970722988
1.0964242998
1.0955099256
1.0944522123
1.0933721993
1.0923965656
1.0916713842
1.0913751503
1.0917254475
1.0929749267
1.0953845815
1.0991670914
1.1044063793
1.1109701773
1.1184549064
1.1262118830
1.1334663064
1.1394907257
1.1437538661
1.1459686000
1.1445624918
1.3924199279
1.3924365880
1.3923055041
1.3920081489
1.3915215187
1.3908090945
1.3898200339
1.3884896687
1.3867376960
1.3844676326
1.3815672318
1.3779036816
1.3733157161
1.3675997239
1.3604784961
1.3515533493
1.3402362852
1.3256540390
1.3065584511
1.2813389309
1.2483797976
1.2070157873
1.1628612683
1.1317897022
1.1076296012
1.0898971941
1.0796029770
1.0756935976
1.0762096523
1.0792552719
1.0833782701
1.0876140966
1.0914004691
1.0944597655
1.0966941651
1.0981157436
1.0988006348
1.0988578269
1.0984130106
1.0975968080
1.0965355819
1.0953511402
1.0941644808
1.0931030582
1.0923145509
1.0919797136
1.0923184662
1.0935849058
1.0960389077
1.0998874153
1.1052026420
1.1118352722
1.1193632298
1.1271247728
1.1343442823
1.1403081245
1.1445090026
1.1466844076
1.1453433840
1.3922254686
1.3922158599
1.3920834368
1.3917819387
1.3912885703
1.3905669501
1.3895661789
1.3882211725
1.3864504441
1.3841550012
1.3812181226
1.3774995797
1.3728268490
1.3669811677
1.3596679552
1.3504761151
1.3388302686
1.3239394075
1.3047943880
1.2803129546
1.2497893708
1.2138006081
1.1763575508
1.1450216016
1.1198955304
1.1011916090
1.0892272710
1.0833099266
1.0819859694
1.0836011764
1.0867102610
1.0902521493
1.0935578423
1.0962697967
1.0982397538
1.0994504647
1.0999612549
1.0998709333
1.0992989000
1.0983719830
1.0972143137
1.0959466991
1.0946900577
1.0935723892
1.0927425142
1.0923827727
1.0927146926
1.0939933268
1.0964777089
1.1003707620
1.1057366299
1.1124143952
1.1199695743
1.1277319053
1.1349256502
1.1408468868
1.1450046755
1.1471530734
1.1458547694
1.3919132873
1.3918430400
1.3917072215
1.3913982374
1.3908936694
1.3901576152
1.3891397078
1.3877753856
1.3859834979
1.3836649736
1.3807023605
1.3769536859
1.3722434240
1.3663488327
1.3589716128
1.3497011829
1.3379768155
1.3230563383
1.3040487529
1.2801031777
1.2508622638
1.2172379882
1.1824670258
1.1514925601
1.1260295738
1.1067789196
1.0939685667
1.0870418672
1.0847658689
1.0856222075
1.0881908952
1.0913717157
1.0944404726
1.0969938123
1.0988526648
1.0999811526
1.1004277115
1.1002846143
1.0996673670
1.0987006304
1.0975074720
1.0962084558