<VTKFile type="UnstructuredGrid" version="0.1">
	<UnstructuredGrid>
		<Piece NumberOfPoints="13548" NumberOfCells="3387">
			<CellData>
				<DataArray type="Int32" Name="ghost" NumberOfComponents="1" Format="ascii">
1
1
1
1
1
1
1
1
1
1
1
1
1
1
1
1
1
1
1
1
1
1
1
1
1
1
1
1
1
1
1
1
1
1
1
1
1
1
1
1
1
1
1
1
1
1
1
1
1
1
1
1
1
1
1
1
1
1
0
0
0
0
0
0
0
0
0
0
0
0
0
0
0
0
0
0
0
0
1
1
0
0
0
0
0
0
0
0
0
0
0
0
0
0
0
0
0
0
0
0
0
0
0
0
0
0
0
0
0
0
0
0
0
1
1
0
0
0
0
0
0
0
0
0
0
0
0
0
0
0
0
0
0
0
0
1
1
0
0
0
0
0
0
0
0
0
0
0
0
0
0
0
0
0
0
0
0
0
0
0
0
0
0
0
0
0
0
0
0
0
1
1
0
0
0
0
0
0
0
0
0
0
0
0
0
0
0
0
0
0
0
0
1
1
0
0
0
0
0
0
0
0
0
0
0
0
0
0
0
0
0
0
0
0
0
0
0
0
0
0
0
0
0
0
0
0
0
1
1
0
0
0
0
0
0
0
0
0
0
0
0
0
0
0
0
0
0
0
0
1
1
0
0
0
0
0
0
0
0
0
0
0
0
0
0
0
0
0
0
0
0
0
0
0
0
0
0
0
0
0
0
0
0
0
1
1
0
0
0
0
0
0
0
0
0
0
0
0
0
0
0
0
0
0
0
0
1
1
0
0
0
0
0
0
0
0
0
0
0
0
0
0
0
0
0
0
0
0
0
0
0
0
0
0
0
0
0
0
0
0
0
1
1
0
0
0
0
0
0
0
0
0
0
0
0
0
0
0
0
0
0
0
0
1
1
0
0
0
0
0
0
0
0
0
0
0
0
0
0
0
0
0
0
0
0
0
0
0
0
0
0
0
0
0
0
0
0
0
1
1
0
0
0
0
0
0
0
0
0
0
0
0
0
0
0
0
0
0
0
0
1
1
0
0
0
0
0
0
0
0
0
0
0
0
0
0
0
0
0
0
0
0
0
0
0
0
0
0
0
0
0
0
0
0
0
1
1
0
0
0
0
0
0
0
0
0
0
0
0
0
0
0
0
0
0
0
0
1
1
0
0
0
0
0
0
0
0
0
0
0
0
0
0
0
0
0
0
0
0
0
0
0
0
0
0
0
0
0
0
0
0
0
1
1
0
0
0
0
0
0
0
0
0
0
0
0
0
0
0
0
0
0
0
0
1
1
0
0
0
0
0
0
0
0
0
0
0
0
0
0
0
0
0
0
0
0
0
0
0
0
0
0
0
0
0
0
0
0
0
1
1
0
0
0
0
0
0
0
0
0
0
0
0
0
0
0
0
0
0
0
0
1
1
0
0
0
0
0
0
0
0
0
0
0
0
0
0
0
0
0
0
0
0
0
0
0
0
0
0
0
0
0
0
0
0
0
1
1
0
0
0
0
0
0
0
0
0
0
0
0
0
0
0
0
0
0
0
0
1
1
0
0
0
0
0
0
0
0
0
0
0
0
0
0
0
0
0
0
0
0
0
0
0
0
0
0
0
0
0
0
0
0
0
1
1
0
0
0
0
0
0
0
0
0
0
0
0
0
0
0
0
0
0
0
0
1
1
0
0
0
0
0
0
0
0
0
0
0
0
0
0
0
0
0
0
0
0
0
0
0
0
0
0
0
0
0
0
0
0
0
1
1
0
0
0
0
0
0
0
0
0
0
0
0
0
0
0
0
0
0
0
0
1
1
0
0
0
0
0
0
0
0
0
0
0
0
0
0
0
0
0
0
0
0
0
0
0
0
0
0
0
0
0
0
0
0
0
1
1
0
0
0
0
0
0
0
0
0
0
0
0
0
0
0
0
0
0
0
0
1
1
0
0
0
0
0
0
0
0
0
0
0
0
0
0
0
0
0
0
0
0
0
0
0
0
0
0
0
0
0
0
0
0
0
1
1
0
0
0
0
0
0
0
0
0
0
0
0
0
0
0
0
0
0
0
0
1
1
0
0
0
0
0
0
0
0
0
0
0
0
0
0
0
0
0
0
0
0
0
0
0
0
0
0
0
0
0
0
0
0
0
1
1
0
0
0
0
0
0
0
0
0
0
0
0
0
0
0
0
0
0
0
0
1
1
0
0
0
0
0
0
0
0
0
0
0
0
0
0
0
0
0
0
0
0
0
0
0
0
0
0
0
0
0
0
0
0
0
1
1
0
0
0
0
0
0
0
0
0
0
0
0
0
0
0
0
0
0
0
0
1
1
0
0
0
0
0
0
0
0
0
0
0
0
0
0
0
0
0
0
0
0
0
0
0
0
0
0
0
0
0
0
0
0
0
1
1
0
0
0
0
0
0
0
0
0
0
0
0
0
0
0
0
0
0
0
0
1
1
0
0
0
0
0
0
0
0
0
0
0
0
0
0
0
0
0
0
0
0
0
0
0
0
0
0
0
0
0
0
0
0
0
1
1
0
0
0
0
0
0
0
0
0
0
0
0
0
0
0
0
0
0
0
0
1
1
0
0
0
0
0
0
0
0
0
0
0
0
0
0
0
0
0
0
0
0
0
0
0
0
0
0
0
0
0
0
0
0
0
1
1
0
0
0
0
0
0
0
0
0
0
0
0
0
0
0
0
0
0
0
0
1
1
0
0
0
0
0
0
0
0
0
0
0
0
0
0
0
0
0
0
0
0
0
0
0
0
0
0
0
0
0
0
0
0
0
1
1
0
0
0
0
0
0
0
0
0
0
0
0
0
0
0
0
0
0
0
0
1
1
0
0
0
0
0
0
0
0
0
0
0
0
0
0
0
0
0
0
0
0
0
0
0
0
0
0
0
0
0
0
0
0
0
1
1
0
0
0
0
0
0
0
0
0
0
0
0
0
0
0
0
0
0
0
0
1
1
0
0
0
0
0
0
0
0
0
0
0
0
0
0
0
0
0
0
0
0
0
0
0
0
0
0
0
0
0
0
0
0
0
1
1
0
0
0
0
0
0
0
0
0
0
0
0
0
0
0
0
0
0
0
0
1
1
0
0
0
0
0
0
0
0
0
0
0
0
0
0
0
0
0
0
0
0
0
0
0
0
0
0
0
0
0
0
0
0
0
1
1
0
0
0
0
0
0
0
0
0
0
0
0
0
0
0
0
0
0
0
0
1
1
0
0
0
0
0
0
0
0
0
0
0
0
0
0
0
0
0
0
0
0
0
0
0
0
0
0
0
0
0
0
0
0
0
1
1
0
0
0
0
0
0
0
0
0
0
0
0
0
0
0
0
0
0
0
0
0
1
1
0
0
0
0
0
0
0
0
0
0
0
0
0
0
0
0
0
0
0
0
0
0
0
0
0
0
0
0
0
0
0
0
0
0
1
1
0
0
0
0
0
0
0
0
0
0
0
0
0
0
0
0
0
0
0
0
0
0
0
0
0
0
0
0
0
0
0
0
0
0
0
0
0
0
0
0
0
0
0
0
0
0
0
0
0
0
0
0
0
0
0
0
0
1
1
0
0
0
0
0
0
0
0
0
0
0
0
0
0
0
0
0
0
0
0
0
0
0
0
0
0
0
0
0
0
0
0
0
0
0
0
0
0
0
0
0
0
0
0
0
0
0
0
0
0
0
0
0
0
0
0
0
1
1
0
0
0
0
0
0
0
0
0
0
0
0
0
0
0
0
0
0
0
0
0
0
0
0
0
0
0
0
0
0
0
0
0
0
0
0
0
0
0
0
0
0
0
0
0
0
0
0
0
0
0
0
0
0
0
0
0
1
1
0
0
0
0
0
0
0
0
0
0
0
0
0
0
0
0
0
0
0
0
0
0
0
0
0
0
0
0
0
0
0
0
0
0
0
0
0
0
0
0
0
0
0
0
0
0
0
0
0
0
0
0
0
0
0
0
0
1
1
0
0
0
0
0
0
0
0
0
0
0
0
0
0
0
0
0
0
0
0
0
0
0
0
0
0
0
0
0
0
0
0
0
0
0
0
0
0
0
0
0
0
0
0
0
0
0
0
0
0
0
0
0
0
0
0
0
1
1
0
0
0
0
0
0
0
0
0
0
0
0
0
0
0
0
0
0
0
0
0
0
0
0
0
0
0
0
0
0
0
0
0
0
0
0
0
0
0
0
0
0
0
0
0
0
0
0
0
0
0
0
0
0
0
0
0
1
1
0
0
0
0
0
0
0
0
0
0
0
0
0
0
0
0
0
0
0
0
0
0
0
0
0
0
0
0
0
0
0
0
0
0
0
0
0
0
0
0
0
0
0
0
0
0
0
0
0
0
0
0
0
0
0
0
0
1
1
0
0
0
0
0
0
0
0
0
0
0
0
0
0
0
0
0
0
0
0
0
0
0
0
0
0
0
0
0
0
0
0
0
0
0
0
0
0
0
0
0
0
0
0
0
0
0
0
0
0
0
0
0
0
0
0
0
1
1
0
0
0
0
0
0
0
0
0
0
0
0
0
0
0
0
0
0
0
0
0
0
0
0
0
0
0
0
0
0
0
0
0
0
0
0
0
0
0
0
0
0
0
0
0
0
0
0
0
0
0
0
0
0
0
0
0
1
1
0
0
0
0
0
0
0
0
0
0
0
0
0
0
0
0
0
0
0
0
0
0
0
0
0
0
0
0
0
0
0
0
0
0
0
0
0
0
0
0
0
0
0
0
0
0
0
0
0
0
0
0
0
0
0
0
0
1
1
0
0
0
0
0
0
0
0
0
0
0
0
0
0
0
0
0
0
0
0
0
1
1
0
0
0
0
0
0
0
0
0
0
0
0
0
0
0
0
0
0
0
0
0
0
0
0
0
0
0
0
0
0
0
0
0
0
1
1
0
0
0
0
0
0
0
0
0
0
0
0
0
0
0
0
0
0
0
0
1
1
0
0
0
0
0
0
0
0
0
0
0
0
0
0
0
0
0
0
0
0
0
0
0
0
0
0
0
0
0
0
0
0
0
1
1
0
0
0
0
0
0
0
0
0
0
0
0
0
0
0
0
0
0
0
0
1
1
0
0
0
0
0
0
0
0
0
0
0
0
0
0
0
0
0
0
0
0
0
0
0
0
0
0
0
0
0
0
0
0
0
1
1
0
0
0
0
0
0
0
0
0
0
0
0
0
0
0
0
0
0
0
0
1
1
0
0
0
0
0
0
0
0
0
0
0
0
0
0
0
0
0
0
0
0
0
0
0
0
0
0
0
0
0
0
0
0
0
1
1
0
0
0
0
0
0
0
0
0
0
0
0
0
0
0
0
0
0
0
0
1
1
0
0
0
0
0
0
0
0
0
0
0
0
0
0
0
0
0
0
0
0
0
0
0
0
0
0
0
0
0
0
0
0
0
1
1
0
0
0
0
0
0
0
0
0
0
0
0
0
0
0
0
0
0
0
0
1
1
0
0
0
0
0
0
0
0
0
0
0
0
0
0
0
0
0
0
0
0
0
0
0
0
0
0
0
0
0
0
0
0
0
1
1
0
0
0
0
0
0
0
0
0
0
0
0
0
0
0
0
0
0
0
0
1
1
0
0
0
0
0
0
0
0
0
0
0
0
0
0
0
0
0
0
0
0
0
0
0
0
0
0
0
0
0
0
0
0
0
1
1
0
0
0
0
0
0
0
0
0
0
0
0
0
0
0
0
0
0
0
0
1
1
0
0
0
0
0
0
0
0
0
0
0
0
0
0
0
0
0
0
0
0
0
0
0
0
0
0
0
0
0
0
0
0
0
1
1
0
0
0
0
0
0
0
0
0
0
0
0
0
0
0
0
0
0
0
0
1
1
0
0
0
0
0
0
0
0
0
0
0
0
0
0
0
0
0
0
0
0
0
0
0
0
0
0
0
0
0
0
0
0
0
1
1
0
0
0
0
0
0
0
0
0
0
0
0
0
0
0
0
0
0
0
0
1
1
0
0
0
0
0
0
0
0
0
0
0
0
0
0
0
0
0
0
0
0
0
0
0
0
0
0
0
0
0
0
0
0
0
1
1
0
0
0
0
0
0
0
0
0
0
0
0
0
0
0
0
0
0
0
0
1
1
0
0
0
0
0
0
0
0
0
0
0
0
0
0
0
0
0
0
0
0
0
0
0
0
0
0
0
0
0
0
0
0
0
1
1
0
0
0
0
0
0
0
0
0
0
0
0
0
0
0
0
0
0
0
0
1
1
0
0
0
0
0
0
0
0
0
0
0
0
0
0
0
0
0
0
0
0
0
0
0
0
0
0
0
0
0
0
0
0
0
1
1
0
0
0
0
0
0
0
0
0
0
0
0
0
0
0
0
0
0
0
0
1
1
0
0
0
0
0
0
0
0
0
0
0
0
0
0
0
0
0
0
0
0
0
0
0
0
0
0
0
0
0
0
0
0
0
1
1
0
0
0
0
0
0
0
0
0
0
0
0
0
0
0
0
0
0
0
0
1
1
0
0
0
0
0
0
0
0
0
0
0
0
0
0
0
0
0
0
0
0
0
0
0
0
0
0
0
0
0
0
0
0
0
1
1
0
0
0
0
0
0
0
0
0
0
0
0
0
0
0
0
0
0
0
0
1
1
0
0
0
0
0
0
0
0
0
0
0
0
0
0
0
0
0
0
0
0
0
0
0
0
0
0
0
0
0
0
0
0
0
1
1
0
0
0
0
0
0
0
0
0
0
0
0
0
0
0
0
0
0
0
0
1
1
0
0
0
0
0
0
0
0
0
0
0
0
0
0
0
0
0
0
0
0
0
0
0
0
0
0
0
0
0
0
0
0
0
1
1
0
0
0
0
0
0
0
0
0
0
0
0
0
0
0
0
0
0
0
0
1
1
0
0
0
0
0
0
0
0
0
0
0
0
0
0
0
0
0
0
0
0
0
0
0
0
0
0
0
0
0
0
0
0
0
1
1
0
0
0
0
0
0
0
0
0
0
0
0
0
0
0
0
0
0
0
0
1
1
0
0
0
0
0
0
0
0
0
0
0
0
0
0
0
0
0
0
0
0
0
0
0
0
0
0
0
0
0
0
0
0
0
1
1
0
0
0
0
0
0
0
0
0
0
0
0
0
0
0
0
0
0
0
0
1
1
0
0
0
0
0
0
0
0
0
0
0
0
0
0
0
0
0
0
0
0
0
0
0
0
0
0
0
0
0
0
0
0
0
1
1
0
0
0
0
0
0
0
0
0
0
0
0
0
0
0
0
0
0
0
0
1
1
0
0
0
0
0
0
0
0
0
0
0
0
0
0
0
0
0
0
0
0
0
0
0
0
0
0
0
0
0
0
0
0
0
1
1
0
0
0
0
0
0
0
0
0
0
0
0
0
0
0
0
0
0
0
0
1
1
0
0
0
0
0
0
0
0
0
0
0
0
0
0
0
0
0
0
0
0
0
0
0
0
0
0
0
0
0
0
0
0
0
1
1
0
0
0
0
0
0
0
0
0
0
0
0
0
0
0
0
0
0
0
0
1
1
0
0
0
0
0
0
0
0
0
0
0
0
0
0
0
0
0
0
0
0
0
0
0
0
0
0
0
0
0
0
0
0
0
1
1
1
1
1
1
1
1
1
1
1
1
1
1
1
1
1
1
1
1
1
1
1
1
1
1
1
1
1
1
1
1
1
1
1
1
1
1
1
1
1
1
1
1
1
1
1
1
1
1
1
1
1
1
1
1
1
1
				</DataArray>
				<DataArray type="Float64" Name="h" NumberOfComponents="1" Format="ascii">
1.1008618783
1.0992967594
1.0994051560
1.0996170199
1.0999272772
1.1003285707
1.1008114122
1.1013645497
1.1019749683
1.1026281565
1.1033084968
1.1039995179
1.1046843080
1.1053459119
1.1059678073
1.1065343694
1.1070311607
1.1074454714
1.1077666796
1.1079863268
1.1080985696
1.1080985696
1.2532719143
1.2532642303
1.2534293306
1.2537631740
1.2542623379
1.2549214070
1.2557323338
1.2566833673
1.2577586158
1.2589369074
1.2601904485
1.2614842059
1.2627748142
1.2640100334
1.2651287882
1.2660618676
1.2667341634
1.2670680000
1.2669882410
1.2664293555
1.2653431777
1.2637073621
1.2615327866
1.2588677525
1.2557985834
1.2524450977
1.2489513970
1.2454743046
1.2421706641
1.2391859415
1.2366462030
1.2346532615
1.2332826736
1.2325840190
1.2325840190
1.0992967594
1.0977978291
1.0979289332
1.0981856396
1.0985616582
1.0990478445
1.0996323932
1.1003012686
1.1010383013
1.1018255452
1.1026437856
1.1034729229
1.1042924952
1.1050821989
1.1058224729
1.1064950309
1.1070832119
1.1075725383
1.1079510533
1.1082093690
1.1083410643
1.1080985696
1.2532642303
1.2533011387
1.2534751414
1.2538264273
1.2543506017
1.2550409036
1.2558876928
1.2568775370
1.2579929782
1.2592115987
1.2605049030
1.2618378713
1.2631679896
1.2644447666
1.2656097028
1.2665967456
1.2673341187
1.2677470399
1.2677620573
1.2673133515
1.2663498353
1.2648433226
1.2627962886
1.2602470640
1.2572720410
1.2539830568
1.2505198373
1.2470394597
1.2437037283
1.2406669171
1.2380662352
1.2360151132
1.2345994561
1.2338765004
1.2325840190
1.0995889912
1.0980976038
1.0982289052
1.0984860201
1.0988626517
1.0993496448
1.0999351786
1.1006051974
1.1013435082
1.1021321385
1.1029518438
1.1037824925
1.1046035876
1.1053947885
1.1061364948
1.1068103791
1.1073997393
1.1078900590
1.1082693460
1.1085281845
1.1086601357
1.1084279929
1.2533144860
1.2533664197
1.2535354137
1.2538769770
1.2543868813
1.2550585922
1.2558827399
1.2568461834
1.2579317654
1.2591173583
1.2603746174
1.2616686395
1.2629572355
1.2641903445
1.2653099632
1.2662506056
1.2669411426
1.2673075209
1.2672771102
1.2667850012
1.2657810704
1.2642380969
1.2621594363
1.2595841016
1.2565888662
1.2532855677
1.2498135234
1.2463290333
1.2429928521
1.2399580638
1.2373606864
1.2353130779
1.2339002774
1.2331789178
1.2318625513
1.1001732806
1.0986971351
1.0988288026
1.0990866766
1.0994644475
1.0999529391
1.1005403009
1.1012124389
1.1019531167
1.1027443126
1.1035667275
1.1044001714
1.1052240846
1.1060180582
1.1067624206
1.1074387681
1.1080303223
1.1085224928
1.1089032196
1.1091630341
1.1092954621
1.1090832930
1.2534031744
1.2534841432
1.2536435520
1.2539665039
1.2544490409
1.2550850014
1.2558654666
1.2567777945
1.2578053645
1.2589266068
1.2601136181
1.2613319627
1.2625401044
1.2636887474
1.2647207538
1.2655716355
1.2661714313
1.2664474430
1.2663286071
1.2657517862
1.2646687616
1.2630542400
1.2609133472
1.2582864800
1.2552511998
1.2519193773
1.2484295531
1.2449365235
1.2415990023
1.2385677578
1.2359764912
1.2339354754
1.2325280679
1.2318097305
1.2304504210
1.1010554700
1.0996020749
1.0997341802
1.0999929692
1.1003721164
1.1008624184
1.1014519883
1.1021266849
1.1028702196
1.1036645136
1.1044902052
1.1053270383
1.1061543814
1.1069517467
1.1076993765
1.1083787731
1.1089730597
1.1094675477
1.1098500850
1.1101111289
1.1102441554
1.1100605792
1.2535186791
1.2536406034
1.2537860109
1.2540818129
1.2545244751
1.2551084134
1.2558254003
1.2566635475
1.2576070308
1.2586350962
1.2597205468
1.2608297016
1.2619219160
1.2629488821
1.2638545812
1.2645758421
1.2650442940
1.2651891406
1.2649415770
1.2642410684
1.2630422299
1.2613226580
1.2590901451
1.2563871831
1.2532925421
1.2499181796
1.2464015257
1.2428951957
1.2395549383
1.2365281585
1.2339451990
1.2319133146
1.2305134345
1.2297993309
1.2283846167
1.1022434236
1.1008199995
1.1009524738
1.1012120524
1.1015923953
1.1020842744
1.1026757698
1.1033526996
1.1040987333
1.1048957490
1.1057243395
1.1065642023
1.1073946525
1.1081951395
1.1089458299
1.1096281340
1.1102250710
1.1107218409
1.1111061809
1.1113684563
1.1115020785
1.1113542492
1.2536442670
1.2538160762
1.2539433267
1.2542039950
1.2545951823
1.2551121610
1.2557477066
1.2564909941
1.2573272823
1.2582368778
1.2591935154
1.2601644857
1.2611101557
1.2619832912
1.2627290977
1.2632859005
1.2635872173
1.2635646018
1.2631521267
1.2622926426
1.2609444983
1.2590891244
1.2567378633
1.2539360041
1.2507639437
1.2473337925
1.2437815704
1.2402570976
1.2369123229
1.2338903521
1.2313172465
1.2292964263
1.2279057428
1.2271968322
1.2257232293
1.1037460755
1.1023594408
1.1024920389
1.1027519297
1.1031327672
1.1036253124
1.1042176330
1.1048955338
1.1056426783
1.1064409463
1.1072709355
1.1081123511
1.1089445086
1.1097468415
1.1104994781
1.1111837594
1.1117826080
1.1122811051
1.1126668587
1.1129301192
1.1130642136
1.1129574163
1.2537590021
1.2539859027
1.2540912141
1.2543095357
1.2546388782
1.2550757212
1.2556142242
1.2562449878
1.2569546601
1.2577248349
1.2585303580
1.2593396365
1.2601140419
1.2608073517
1.2613659532
1.2617297023
1.2618341775
1.2616136269
1.2610055388
1.2599568681
1.2584305457
1.2564127331
1.2539191574
1.2509985614
1.2477333514
1.2442358427
1.2406403684
1.2370934025
1.2337423638
1.2307252567
1.2281630864
1.2261547647
1.2247745391
1.2240715523
1.2225458566
1.1055726491
1.1042290634
1.1043613392
1.1046206634
1.1050007036
1.1054922397
1.1060833694
1.1067599401
1.1075056795
1.1083025512
1.1091312497
1.1099715831
1.1108029593
1.1116048770
1.1123574885
1.1130421041
1.1136415612
1.1141408096
1.1145272962
1.1147911165
1.1149254764
1.1148628200
1.2538393042
1.2541222751
1.2542023462
1.2543720750
1.2546307046
1.2549763329
1.2554049401
1.2559089525
1.2564767229
1.2570913319
1.2577288810
1.2583589669
1.2589438436
1.2594381059
1.2597891491
1.2599382738
1.2598231823
1.2593810695
1.2585532961
1.2572915651
1.2555641600
1.2533627829
1.2507082862
1.2476534270
1.2442829216
1.2407092933
1.2370649098
1.2334924038
1.2301340405
1.2271220669
1.2245718228
1.2225771987
1.2212084498
1.2205119693
1.2189512000
1.1077311965
1.1064361933
1.1065674892
1.1068249477
1.1072022828
1.1076903446
1.1082773310
1.1089492237
1.1096899255
1.1104816120
1.1113052134
1.1121407813
1.1129679490
1.1137663926
1.1145163704
1.1151992054
1.1157976516
1.1162964901
1.1166829410
1.1169468670
1.1170812833
1.1170634758
1.2538594752
1.2541950356
1.2542471835
1.2543632774
1.2545441432
1.2547899404
1.2550989317
1.2554657811
1.2558808490
1.2563288696
1.2567873063
1.2572269775
1.2576107768
1.2578938312
1.2580242711
1.2579446713
1.2575948461
1.2569151188
1.2558511078
1.2543598232
1.2524155684
1.2500162712
1.2471885044
1.2439894529
1.2405063150
1.2368517377
1.2331558191
1.2295568974
1.2261915650
1.2231858049
1.2206488529
1.2186692328
1.2173129627
1.2166235342
1.2150535266
1.1102271032
1.1089852880
1.1091147405
1.1093686263
1.1097407557
1.1102221256
1.1108011397
1.1114640470
1.1121950845
1.1129768196
1.1137906086
1.1146169361
1.1154358334
1.1162272938
1.1169717733
1.1176506418
1.1182465412
1.1187439976
1.1191298756
1.1193936598
1.1195280462
1.1195532835
1.2537926381
1.2541729064
1.2541952148
1.2542540868
1.2543522760
1.2544924373
1.2546755642
1.2548989475
1.2551552246
1.2554308939
1.2557048811
1.2559491987
1.2561270667
1.2561937771
1.2560978837
1.2557830209
1.2551910672
1.2542656128
1.2529568584
1.2512275895
1.2490586710
1.2464547786
1.2434486124
1.2401020075
1.2365046481
1.2327691049
1.2290228584
1.2253995321
1.2220296258
1.2190324990
1.2165110109
1.2145481374
1.2132055542
1.2125237991
1.2109766260
1.1130620217
1.1118768255
1.1120033898
1.1122516375
1.1126155456
1.1130863649
1.1136528486
1.1143016943
1.1150176851
1.1157840153
1.1165827129
1.1173949334
1.1182013162
1.1189823323
1.1197187272
1.1203919253
1.1209843735
1.1214801766
1.1218656153
1.1221295426
1.1222641105
1.1223281158
1.2536121235
1.2540251875
1.2540166408
1.2540163719
1.2540293628
1.2540611450
1.2541158337
1.2541936814
1.2542898053
1.2543925420
1.2544823496
1.2545323959
1.2545058140
1.2543576981
1.2540366902
1.2534872860
1.2526533757
1.2514819389
1.2499280313
1.2479605859
1.2455674248
1.2427603022
1.2395782332
1.2360877043
1.2323807035
1.2285693965
1.2247782500
1.2211357834
1.2177660823
1.2147816621
1.2122788917
1.2103351661
1.2090078399
1.2083345360
1.2068452116
1.1162323704
1.1151058081
1.1152283012
1.1154685746
1.1158208645
1.1162768152
1.1168257164
1.1174549449
1.1181500977
1.1188952888
1.1196735183
1.1204668978
1.1212569200
1.1220247094
1.1227513813
1.1234183805
1.1240077973
1.1245030332
1.1248894093
1.1251547296
1.1252902247
1.1253864304
1.2532915222
1.2537221176
1.2536827592
1.2536233533
1.2535513210
1.2534753430
1.2534029427
1.2533375679
1.2532769631
1.2532112932
1.2531226246
1.2529851799
1.2527615634
1.2524062892
1.2518678157
1.2510913312
1.2500227189
1.2486124694
1.2468207230
1.2446228303
1.2420138065
1.2390126085
1.2356645193
1.2320404565
1.2282343444
1.2243575019
1.2205309486
1.2168777531
1.2135153650
1.2105493712
1.2080696791
1.2061482037
1.2048381067
1.2041742110
1.2027772682
1.1197278276
1.1186602541
1.1187774162
1.1190072308
1.1193443089
1.1197808613
1.1203069430
1.1209108916
1.1215794401
1.1222979703
1.1230508088
1.1238213548
1.1245922317
1.1253454060
1.1260624278
1.1267246749
1.1273136195
1.1278115261
1.1282021757
1.1284716641
1.1286096826
1.1287295825
1.2528051433
1.2532356063
1.2531667192
1.2530503927
1.2528965443
1.2527171091
1.2525231356
1.2523213962
1.2521122767
1.2518877741
1.2516315700
1.2513187516
1.2509109240
1.2503617218
1.2496191865
1.2486290994
1.2473393770
1.2457041456
1.2436888232
1.2412753376
1.2384659706
1.2352867950
1.2317890905
1.2280477761
1.2241581930
1.2202302829
1.2163811857
1.2127282370
1.2093821362
1.2064415893
1.2039902014
1.2020946222
1.2008040373
1.2001506432
1.1988770959
1.1235304947
1.1225203769
1.1226309511
1.1228478314
1.1231661407
1.1235788600
1.1240770773
1.1246504176
1.1252871209
1.1259742358
1.1266978189
1.1274429320
1.1281936405
1.1289329574
1.1296429213
1.1303047046
1.1308987914
1.1314056911
1.1318067952
1.1320854812
1.1322289018
1.1323626102
1.2521290080
1.2525404691
1.2524447736
1.2522762523
1.2520471355
1.2517724816
1.2514667901
1.2511400572
1.2507953022
1.2504263852
1.2500184683
1.2495472070
1.2489727570
1.2482476206
1.2473193112
1.2461341796
1.2446422454
1.2428014454
1.2405825870
1.2379742596
1.2349859084
1.2316504360
1.2280246542
1.2241868972
1.2202332675
1.2162717641
1.2124152500
1.2087751301
1.2054553741
1.2025479825
1.2001305335
1.1982647202
1.1969960391
1.1963542793
1.1952293825
1.1276139207
1.1266576944
1.1267605159
1.1269621722
1.1272584516
1.1276433337
1.1281092378
1.1286474385
1.1292480930
1.1299003574
1.1305924645
1.1313115568
1.1320434926
1.1327725662
1.1334813697
1.1341507031
1.1347595974
1.1352859911
1.1357076952
1.1360038581
1.1361574767
1.1362944698
1.2512404828
1.2516142341
1.2514962134
1.2512832131
1.2509891978
1.2506318951
1.2502289247
1.2497932892
1.2493302149
1.2488356852
1.2482968089
1.2476882816
1.2469688537
1.2460898029
1.2449979475
1.2436403526
1.2419692739
1.2399465628
1.2375485923
1.2347705051
1.2316286729
1.2281624510
1.2244334342
1.2205225247
1.2165265615
1.2125508270
1.2087031957
1.2050890648
1.2018058338
1.1989391537
1.1965610070
1.1947285452
1.1934839310
1.1928547988
1.1918967433
1.1319421694
1.1310341898
1.1311282810
1.1313127932
1.1315843446
1.1319381562
1.1323682943
1.1328680665
1.1334299816
1.1340457713
1.1347063258
1.1354013291
1.1361188349
1.1368447136
1.1375622316
1.1382516810
1.1388901369
1.1394519775
1.1399098457
1.1402364428
1.1404079761
1.1405380222
1.2501184900
1.2504374446
1.2503039127
1.2500579123
1.2497139075
1.2492913712
1.2488104264
1.2482866433
1.2477272535
1.2471302488
1.2464849866
1.2457639639
1.2449246015
1.2439167163
1.2426864820
1.2411818175
1.2393575231
1.2371793942
1.2346294412
1.2317091425
1.2284408282
1.2248710677
1.2210660277
1.2171078047
1.2130919762
1.2091208045
1.2052976035
1.2017217919
1.1984844275
1.1956651935
1.1933309516
1.1915347656
1.1903158478
1.1896999889
1.1889194574
1.1364698179
1.1356024411
1.1356871047
1.1358531030
1.1360980498
1.1364186509
1.1368109353
1.1372706276
1.1377930254
1.1383729132
1.1390043409
1.1396800357
1.1403907179
1.1411242305
1.1418647676
1.1425921190
1.1432809954
1.1439011644
1.1444181204
1.1447949476
1.1449967538
1.1451110236
1.2487439794
1.2489941279
1.2488552769
1.2485927696
1.2482192100
1.2477542565
1.2472196051
1.2466329394
1.2460031580
1.2453307830
1.2446066334
1.2438007001
1.2428688211
1.2417589865
1.2404172130
1.2387925195
1.2368422000
1.2345361198
1.2318608492
1.2288276860
1.2254640229
1.2218199566
1.2179645249
1.2139820047
1.2099664738
1.2060170296
1.2022320759
1.1987052010
1.1955214730
1.1927550584
1.1904681830
1.1887103137
1.1875181486
1.1869159998
1.1863166763
1.1411422024
1.1403060511
1.1403809471
1.1405277579
1.1407452488
1.1410318385
1.1413858137
1.1418056765
1.1422899272
1.1428368637
1.1434442015
1.1441082479
1.1448229474
1.1455786705
1.1463610361
1.1471496597
1.1479168239
1.1486268529
1.1492358919
1.1496930715
1.1499453629
1.1500376411
1.2470981582
1.2472699221
1.2471415192
1.2468863113
1.2465108123
1.2460324732
1.2454735025
1.2448533761
1.2441827797
1.2434647350
1.2426915316
1.2418295804
1.2408339428
1.2396494223
1.2382226244
1.2365029193
1.2344542342
1.2320499515
1.2292821828
1.2261647150
1.2227323122
1.2190392231
1.2151572554
1.2111709675
1.2071732064
1.2032595936
1.1995237099
1.1960536721
1.1929290051
1.1902188766
1.1879813913
1.1862628805
1.1850979422
1.1845097013
1.1840892475
1.1458957825
1.1450801849
1.1451453833
1.1452731278
1.1454634690
1.1457167329
1.1460337150
1.1464160033
1.1468656602
1.1473849095
1.1479756113
1.1486382082
1.1493705199
1.1501662147
1.1510132148
1.1518918757
1.1527727656
1.1536147337
1.1543627395
1.1549465510
1.1552837779
1.1553517351
1.2451594792
1.2452488998
1.2451569153
1.2449442842
1.2446041506
1.2441486833
1.2435997810
1.2429796084
1.2422999167
1.2415677600
1.2407755026
1.2398844943
1.2388488379
1.2376169696
1.2361338911
1.2343505892
1.2322318611
1.2297567745
1.2269225466
1.2237474976
1.2202709628
1.2165513659
1.2126625825
1.2086894209
1.2047229665
1.2008553920
1.1971757638
1.1937671710
1.1907041638
1.1880514905
1.1858636697
1.1841843592
1.1830464034
1.1824719540
1.1822230973
1.1506596021
1.1498532036
1.1499092101
1.1500188476
1.1501835526
1.1504057020
1.1506887823
1.1510376938
1.1514583295
1.1519571601
1.1525405976
1.1532137501
1.1539790312
1.1548344150
1.1557715164
1.1567732597
1.1578106479
1.1588389324
1.1597919044
1.1605746928
1.1610588900
1.1611053847
1.2428965817
1.2429062521
1.2428970403
1.2427810299
1.2425268879
1.2421385660
1.2416375932
1.2410481571
1.2403885182
1.2396725125
1.2388918114
1.2380025036
1.2369561573
1.2357037019
1.2341904911
1.2323695885
1.2302065858
1.2276850673
1.2248072308
1.2215966163
1.2180966890
1.2143690221
1.2104890907
1.2065415311
1.2026155566
1.1988000892
1.1951800702
1.1918341267
1.1888324566
1.1862360099
1.1840962776
1.1824546831
1.1813426226
1.1807814478
1.1806930260
1.1553572489
1.1545487673
1.1545965081
1.1546898023
1.1548315289
1.1550261918
1.1552800603
1.1556014618
1.1560002574
1.1564873441
1.1570739552
1.1577702883
1.1585840513
1.1595187084
1.1605715083
1.1617309952
1.1629730651
1.1642550404
1.1655047225
1.1666018261
1.1673518479
1.1673862684
1.2402503622
1.2401899217
1.2403511827
1.2404138245
1.2403105721
1.2400393682
1.2396270446
1.2391044978
1.2384996384
1.2378320151
1.2370914974
1.2362309109
1.2352018263
1.2339522228
1.2324301199
1.2305910126
1.2284039273
1.2258556294
1.2229534172
1.2197250768
1.2162179081
1.2124960311
1.2086359987
1.2047219708
1.2008413332
1.1970800091
1.1935193000
1.1902340017
1.1872906246
1.1847469530
1.1826519952
1.1810453555
1.1799572640
1.1794084374
1.1794664269
1.1599087492
1.1590877955
1.1591285686
1.1592079890
1.1593303831
1.1595023780
1.1597330093
1.1600340068
1.1604191685
1.1609037949
1.1615039823
1.1622352016
1.1631109450
1.1641412886
1.1653313903
1.1666797124
1.1681746407
1.1697877897
1.1714579184
1.1730555853
1.1743134179
1.1743533482
1.2370956475
1.2369838635
1.2374957301
1.2378693581
1.2380046805
1.2379092247
1.2376278600
1.2372075137
1.2366949469
1.2361106753
1.2354321197
1.2346194117
1.2336244141
1.2323945801
1.2308796900
1.2290379121
1.2268417818
1.2242820653
1.2213700410
1.2181374431
1.2146346443
1.2109278419
1.2070942311
1.2032173643
1.1993828942
1.1956740895
1.1921691572
1.1889397124
1.1860492505
1.1835530097
1.1814980348
1.1799224986
1.1788557297
1.1783179673
1.1785064192
1.1642332427
1.1633911457
1.1634265456
1.1634951227
1.1636025997
1.1637576369
1.1639719003
1.1642603418
1.1646404646
1.1651316929
1.1657546956
1.1665299714
1.1674767475
1.1686122378
1.1699513497
1.1715071673
1.1732911473
1.1753108062
1.1775560521
1.1799533991
1.1822391086
1.1823131048
1.2331794249
1.2330473225
1.2343032499
1.2352035673
1.2356910002
1.2358341125
1.2357235980
1.2354360503
1.2350385260
1.2345553441
1.2339553020
1.2332035762
1.2322537434
1.2310545225
1.2295575708
1.2277239674
1.2255296977
1.2229692474
1.2200576687
1.2168299007
1.2133388518
1.2096522503
1.2058476251
1.2020078301
1.1982169563
1.1945560246
1.1911007144
1.1879201160
1.1850753647
1.1826197468
1.1805988272
1.1790497084
1.1780010648
1.1774728060
1.1777746307
1.1682519650
1.1673824933
1.1674143127
1.1674754530
1.1675729265
1.1677172514
1.1679224707
1.1682064203
1.1685898661
1.1690957871
1.1697487145
1.1705732960
1.1715934638
1.1728325986
1.1743150834
1.1760709603
1.1781448291
1.1806102486
1.1835867794
1.1872437291
1.1917259209
1.1918792180
1.2279747345
1.2278706878
1.2307658955
1.2325287625
1.2334890120
1.2339153273
1.2339968726
1.2338598921
1.2335896254
1.2332119168
1.2326955657
1.2320094830
1.2311091334
1.2299452837
1.2284717542
1.2266525576
1.2244668571
1.2219125067
1.2190077931
1.2157902743
1.2123147884
1.2086501304
1.2048738840
1.2010681718
1.1973157388
1.1936957857
1.1902820387
1.1871417026
1.1843341831
1.1819113730
1.1799178082
1.1783898578
1.1773557687
1.1768352572
1.1772328275
1.1718906185
1.1709905102
1.1710206370
1.1710779342
1.1711705474
1.1713106020
1.1715141617
1.1718014721
1.1721959365
1.1727232530
1.1734106813
1.1742854002
1.1753736411
1.1767013608
1.1782972310
1.1802019868
1.1824909534
1.1853257901
1.1890753927
1.1946070134
1.2039932179
1.2043000746
1.2203342713
1.2203375768
1.2269677486
1.2300699111
1.2315745417
1.2322725975
1.2325284715
1.2325364721
1.2323915894
1.2321102680
1.2316721693
1.2310480446
1.2301953084
1.2290664528
1.2276175085
1.2258151949
1.2236414868
1.2210970899
1.2182028731
1.2149983746
1.2115397582
1.2078964386
1.2041458166
1.2003692822
1.1966484761
1.1930612129
1.1896798289
1.1865702595
1.1837907804
1.1813924150
1.1794190937
1.1779067651
1.1768834575
1.1763688210
1.1768444214
1.1750818110
1.1741510686
1.1741813884
1.1742384523
1.1743313424
1.1744734837
1.1746825344
1.1749805884
1.1753929564
1.1759470765
1.1766715438
1.1775938694
1.1787386747
1.1801267621
1.1817742928
1.1836935881
1.1858950076
1.1883847849
1.1911436732
1.1940344583
1.1964639809
1.1910478186
1.1941954806
1.2087516260
1.2351947489
1.2291722785
1.2292288762
1.2300204804
1.2307348808
1.2312054628
1.2314456637
1.2315199176
1.2314613926
1.2312543342
1.2308812045
1.2303105882
1.2294997028
1.2284023293
1.2269765530
1.2251914607
1.2230313704
1.2204991793
1.2176176581
1.2144276097
1.2109859190
1.2073621847
1.2036334081
1.1998802746
1.1961835679
1.1926201535
1.1892615261
1.1861729443
1.1834121235
1.1810297156
1.1790694444
1.1775671314
1.1765507844
1.1760401040
1.1765762766
1.1777675108
1.1768093744
1.1768416887
1.1769020041
1.1770001141
1.1771504029
1.1773716670
1.1776872767
1.1781237609
1.1787094799
1.1794734016
1.1804422383
1.1816377202
1.1830743357
1.1847558737
1.1866719549
1.1887934400
1.1910607587
1.1933561535
1.1954378003
1.1967879676
1.1948645270
1.1948625051
1.2089859561
1.2242904859
1.2259857339
1.2275588149
1.2287840803
1.2296552125
1.2302253187
1.2305627786
1.2307305593
1.2307512602
1.2306106673
1.2302933165
1.2297676763
1.2289921295
1.2279221026
1.2265176137
1.2247498195
1.2226048199
1.2200870412
1.2172203884
1.2140462084
1.2106214952
1.2070155975
1.2033049266
1.1995695016
1.1958895110
1.1923412980
1.1889960581
1.1859189432
1.1831676572
1.1807929573
1.1788387394
1.1773409807
1.1763278554
1.1758192257
1.1763990162
1.1799005115
1.1789211141
1.1789570823
1.1790239121
1.1791318649
1.1792959265
1.1795355714
1.1798748945
1.1803410317
1.1809626399
1.1817684919
1.1827841516
1.1840286488
1.1855116081
1.1872287867
1.1891579728
1.1912557749
1.1934523980
1.1956461254
1.1977002880
1.1994493279
1.2003636557
1.2028857407
1.2114184948
1.2204419955
1.2238734358
1.2261105094
1.2276592785
1.2287186171
1.2294214252
1.2298722196
1.2301324382
1.2302193928
1.2301344129
1.2298628723
1.2293743255
1.2286287078
1.2275831394
1.2261994478
1.2244504342
1.2223234096
1.2198235940
1.2169752408
1.2138195117
1.2104128966
1.2068240779
1.2031286958
1.1994061680
1.1957363466
1.1921954868
1.1888550103
1.1857805255
1.1830302593
1.1806555347
1.1787007875
1.1772024241
1.1761889668
1.1756805439
1.1762876729
1.1814454663
1.1804532300
1.1804943330
1.1805706556
1.1806926722
1.1808756061
1.1811391547
1.1815076101
1.1820081670
1.1826692767
1.1835191540
1.1845821743
1.1858752404
1.1874047668
1.1891620354
1.1911196710
1.1932311091
1.1954315621
1.1976462051
1.1998123336
1.2019208583
1.2039952842
1.2071770881
1.2130005935
1.2190352099
1.2226164104
1.2250630720
1.2267794908
1.2279734330
1.2287892839
1.2293325586
1.2296639839
1.2298064715
1.2297672657
1.2295336342
1.2290767301
1.2283582846
1.2273371345
1.2259765903
1.2242505937
1.2221470100
1.2196710889
1.2168466433
1.2137139263
1.2103283349
1.2067574787
1.2030760819
1.1993630319
1.1956981232
1.1921579335
1.1888146594
1.1857349095
1.1829779646
1.1805961665
1.1786348495
1.1771311190
1.1761140225
1.1756040547
1.1762230413
1.1823800690
1.1813848442
1.1814323767
1.1815208701
1.1816607510
1.1818671164
1.1821594413
1.1825617081
1.1831006610
1.1838041031
1.1846993957
1.1858097267
1.1871503575
1.1887256546
1.1905245073
1.1925174262
1.1946579382
1.1968870283
1.1991471794
1.2014111167
1.2037220780
1.2062177775
1.2094518069
1.2139384521
1.2185085270
1.2218687892
1.2243268018
1.2261093137
1.2273816007
1.2282740319
1.2288824192
1.2292648579
1.2294503002
1.2294482038
1.2292471661
1.2288197825
1.2281294029
1.2271362666
1.2258047307
1.2241092761
1.2220376241
1.2195942929
1.2168018690
1.2136990056
1.2103394407
1.2067893426
1.2031223873
1.1994170242
1.1957532739
1.1922084159
1.1888559885
1.1857641563
1.1829937629
1.1805986164
1.1786253031
1.1771118931
1.1760881334
1.1755749833
1.1761912227
1.1826953856
1.1817074452
1.1817625297
1.1818655877
1.1820267374
1.1822605927
1.1825859747
1.1830260701
1.1836066888
1.1843545710
1.1852959348
1.1864527287
1.1878388574
1.1894572616
1.1912953339
1.1933222160
1.1954909163
1.1977439613
1.2000292919
1.2023301342
1.2047005802
1.2072872286
1.2104222549
1.2143029222
1.2182151856
1.2213694635
1.2237798775
1.2255732513
1.2268790837
1.2278117372
1.2284585551
1.2288754953
1.2290938889
1.2291232517
1.2289528394
1.2285563953
1.2278985151
1.2269404155
1.2256469644
1.2239925254
1.2219639842
1.2195643729