<VTKFile type="UnstructuredGrid" version="0.1">
	<UnstructuredGrid>
		<Piece NumberOfPoints="13548" NumberOfCells="3387">
			<CellData>
				<DataArray type="Int32" Name="ghost" NumberOfComponents="1" Format="ascii">
1
1
1
1
1
1
1
1
1
1
1
1
1
1
1
1
1
1
1
1
1
1
1
1
1
1
1
1
1
1
1
1
1
1
1
1
1
1
1
1
1
1
1
1
1
1
1
1
1
1
1
1
1
1
1
1
1
1
0
0
0
0
0
0
0
0
0
0
0
0
0
0
0
0
0
0
0
0
1
1
0
0
0
0
0
0
0
0
0
0
0
0
0
0
0
0
0
0
0
0
0
0
0
0
0
0
0
0
0
0
0
0
0
1
1
0
0
0
0
0
0
0
0
0
0
0
0
0
0
0
0
0
0
0
0
1
1
0
0
0
0
0
0
0
0
0
0
0
0
0
0
0
0
0
0
0
0
0
0
0
0
0
0
0
0
0
0
0
0
0
1
1
0
0
0
0
0
0
0
0
0
0
0
0
0
0
0
0
0
0
0
0
1
1
0
0
0
0
0
0
0
0
0
0
0
0
0
0
0
0
0
0
0
0
0
0
0
0
0
0
0
0
0
0
0
0
0
1
1
0
0
0
0
0
0
0
0
0
0
0
0
0
0
0
0
0
0
0
0
1
1
0
0
0
0
0
0
0
0
0
0
0
0
0
0
0
0
0
0
0
0
0
0
0
0
0
0
0
0
0
0
0
0
0
1
1
0
0
0
0
0
0
0
0
0
0
0
0
0
0
0
0
0
0
0
0
1
1
0
0
0
0
0
0
0
0
0
0
0
0
0
0
0
0
0
0
0
0
0
0
0
0
0
0
0
0
0
0
0
0
0
1
1
0
0
0
0
0
0
0
0
0
0
0
0
0
0
0
0
0
0
0
0
1
1
0
0
0
0
0
0
0
0
0
0
0
0
0
0
0
0
0
0
0
0
0
0
0
0
0
0
0
0
0
0
0
0
0
1
1
0
0
0
0
0
0
0
0
0
0
0
0
0
0
0
0
0
0
0
0
1
1
0
0
0
0
0
0
0
0
0
0
0
0
0
0
0
0
0
0
0
0
0
0
0
0
0
0
0
0
0
0
0
0
0
1
1
0
0
0
0
0
0
0
0
0
0
0
0
0
0
0
0
0
0
0
0
1
1
0
0
0
0
0
0
0
0
0
0
0
0
0
0
0
0
0
0
0
0
0
0
0
0
0
0
0
0
0
0
0
0
0
1
1
0
0
0
0
0
0
0
0
0
0
0
0
0
0
0
0
0
0
0
0
1
1
0
0
0
0
0
0
0
0
0
0
0
0
0
0
0
0
0
0
0
0
0
0
0
0
0
0
0
0
0
0
0
0
0
1
1
0
0
0
0
0
0
0
0
0
0
0
0
0
0
0
0
0
0
0
0
1
1
0
0
0
0
0
0
0
0
0
0
0
0
0
0
0
0
0
0
0
0
0
0
0
0
0
0
0
0
0
0
0
0
0
1
1
0
0
0
0
0
0
0
0
0
0
0
0
0
0
0
0
0
0
0
0
1
1
0
0
0
0
0
0
0
0
0
0
0
0
0
0
0
0
0
0
0
0
0
0
0
0
0
0
0
0
0
0
0
0
0
1
1
0
0
0
0
0
0
0
0
0
0
0
0
0
0
0
0
0
0
0
0
1
1
0
0
0
0
0
0
0
0
0
0
0
0
0
0
0
0
0
0
0
0
0
0
0
0
0
0
0
0
0
0
0
0
0
1
1
0
0
0
0
0
0
0
0
0
0
0
0
0
0
0
0
0
0
0
0
1
1
0
0
0
0
0
0
0
0
0
0
0
0
0
0
0
0
0
0
0
0
0
0
0
0
0
0
0
0
0
0
0
0
0
1
1
0
0
0
0
0
0
0
0
0
0
0
0
0
0
0
0
0
0
0
0
1
1
0
0
0
0
0
0
0
0
0
0
0
0
0
0
0
0
0
0
0
0
0
0
0
0
0
0
0
0
0
0
0
0
0
1
1
0
0
0
0
0
0
0
0
0
0
0
0
0
0
0
0
0
0
0
0
1
1
0
0
0
0
0
0
0
0
0
0
0
0
0
0
0
0
0
0
0
0
0
0
0
0
0
0
0
0
0
0
0
0
0
1
1
0
0
0
0
0
0
0
0
0
0
0
0
0
0
0
0
0
0
0
0
1
1
0
0
0
0
0
0
0
0
0
0
0
0
0
0
0
0
0
0
0
0
0
0
0
0
0
0
0
0
0
0
0
0
0
1
1
0
0
0
0
0
0
0
0
0
0
0
0
0
0
0
0
0
0
0
0
1
1
0
0
0
0
0
0
0
0
0
0
0
0
0
0
0
0
0
0
0
0
0
0
0
0
0
0
0
0
0
0
0
0
0
1
1
0
0
0
0
0
0
0
0
0
0
0
0
0
0
0
0
0
0
0
0
1
1
0
0
0
0
0
0
0
0
0
0
0
0
0
0
0
0
0
0
0
0
0
0
0
0
0
0
0
0
0
0
0
0
0
1
1
0
0
0
0
0
0
0
0
0
0
0
0
0
0
0
0
0
0
0
0
1
1
0
0
0
0
0
0
0
0
0
0
0
0
0
0
0
0
0
0
0
0
0
0
0
0
0
0
0
0
0
0
0
0
0
1
1
0
0
0
0
0
0
0
0
0
0
0
0
0
0
0
0
0
0
0
0
1
1
0
0
0
0
0
0
0
0
0
0
0
0
0
0
0
0
0
0
0
0
0
0
0
0
0
0
0
0
0
0
0
0
0
1
1
0
0
0
0
0
0
0
0
0
0
0
0
0
0
0
0
0
0
0
0
1
1
0
0
0
0
0
0
0
0
0
0
0
0
0
0
0
0
0
0
0
0
0
0
0
0
0
0
0
0
0
0
0
0
0
1
1
0
0
0
0
0
0
0
0
0
0
0
0
0
0
0
0
0
0
0
0
1
1
0
0
0
0
0
0
0
0
0
0
0
0
0
0
0
0
0
0
0
0
0
0
0
0
0
0
0
0
0
0
0
0
0
1
1
0
0
0
0
0
0
0
0
0
0
0
0
0
0
0
0
0
0
0
0
1
1
0
0
0
0
0
0
0
0
0
0
0
0
0
0
0
0
0
0
0
0
0
0
0
0
0
0
0
0
0
0
0
0
0
1
1
0
0
0
0
0
0
0
0
0
0
0
0
0
0
0
0
0
0
0
0
1
1
0
0
0
0
0
0
0
0
0
0
0
0
0
0
0
0
0
0
0
0
0
0
0
0
0
0
0
0
0
0
0
0
0
1
1
0
0
0
0
0
0
0
0
0
0
0
0
0
0
0
0
0
0
0
0
0
1
1
0
0
0
0
0
0
0
0
0
0
0
0
0
0
0
0
0
0
0
0
0
0
0
0
0
0
0
0
0
0
0
0
0
0
1
1
0
0
0
0
0
0
0
0
0
0
0
0
0
0
0
0
0
0
0
0
0
0
0
0
0
0
0
0
0
0
0
0
0
0
0
0
0
0
0
0
0
0
0
0
0
0
0
0
0
0
0
0
0
0
0
0
0
1
1
0
0
0
0
0
0
0
0
0
0
0
0
0
0
0
0
0
0
0
0
0
0
0
0
0
0
0
0
0
0
0
0
0
0
0
0
0
0
0
0
0
0
0
0
0
0
0
0
0
0
0
0
0
0
0
0
0
1
1
0
0
0
0
0
0
0
0
0
0
0
0
0
0
0
0
0
0
0
0
0
0
0
0
0
0
0
0
0
0
0
0
0
0
0
0
0
0
0
0
0
0
0
0
0
0
0
0
0
0
0
0
0
0
0
0
0
1
1
0
0
0
0
0
0
0
0
0
0
0
0
0
0
0
0
0
0
0
0
0
0
0
0
0
0
0
0
0
0
0
0
0
0
0
0
0
0
0
0
0
0
0
0
0
0
0
0
0
0
0
0
0
0
0
0
0
1
1
0
0
0
0
0
0
0
0
0
0
0
0
0
0
0
0
0
0
0
0
0
0
0
0
0
0
0
0
0
0
0
0
0
0
0
0
0
0
0
0
0
0
0
0
0
0
0
0
0
0
0
0
0
0
0
0
0
1
1
0
0
0
0
0
0
0
0
0
0
0
0
0
0
0
0
0
0
0
0
0
0
0
0
0
0
0
0
0
0
0
0
0
0
0
0
0
0
0
0
0
0
0
0
0
0
0
0
0
0
0
0
0
0
0
0
0
1
1
0
0
0
0
0
0
0
0
0
0
0
0
0
0
0
0
0
0
0
0
0
0
0
0
0
0
0
0
0
0
0
0
0
0
0
0
0
0
0
0
0
0
0
0
0
0
0
0
0
0
0
0
0
0
0
0
0
1
1
0
0
0
0
0
0
0
0
0
0
0
0
0
0
0
0
0
0
0
0
0
0
0
0
0
0
0
0
0
0
0
0
0
0
0
0
0
0
0
0
0
0
0
0
0
0
0
0
0
0
0
0
0
0
0
0
0
1
1
0
0
0
0
0
0
0
0
0
0
0
0
0
0
0
0
0
0
0
0
0
0
0
0
0
0
0
0
0
0
0
0
0
0
0
0
0
0
0
0
0
0
0
0
0
0
0
0
0
0
0
0
0
0
0
0
0
1
1
0
0
0
0
0
0
0
0
0
0
0
0
0
0
0
0
0
0
0
0
0
0
0
0
0
0
0
0
0
0
0
0
0
0
0
0
0
0
0
0
0
0
0
0
0
0
0
0
0
0
0
0
0
0
0
0
0
1
1
0
0
0
0
0
0
0
0
0
0
0
0
0
0
0
0
0
0
0
0
0
1
1
0
0
0
0
0
0
0
0
0
0
0
0
0
0
0
0
0
0
0
0
0
0
0
0
0
0
0
0
0
0
0
0
0
0
1
1
0
0
0
0
0
0
0
0
0
0
0
0
0
0
0
0
0
0
0
0
1
1
0
0
0
0
0
0
0
0
0
0
0
0
0
0
0
0
0
0
0
0
0
0
0
0
0
0
0
0
0
0
0
0
0
1
1
0
0
0
0
0
0
0
0
0
0
0
0
0
0
0
0
0
0
0
0
1
1
0
0
0
0
0
0
0
0
0
0
0
0
0
0
0
0
0
0
0
0
0
0
0
0
0
0
0
0
0
0
0
0
0
1
1
0
0
0
0
0
0
0
0
0
0
0
0
0
0
0
0
0
0
0
0
1
1
0
0
0
0
0
0
0
0
0
0
0
0
0
0
0
0
0
0
0
0
0
0
0
0
0
0
0
0
0
0
0
0
0
1
1
0
0
0
0
0
0
0
0
0
0
0
0
0
0
0
0
0
0
0
0
1
1
0
0
0
0
0
0
0
0
0
0
0
0
0
0
0
0
0
0
0
0
0
0
0
0
0
0
0
0
0
0
0
0
0
1
1
0
0
0
0
0
0
0
0
0
0
0
0
0
0
0
0
0
0
0
0
1
1
0
0
0
0
0
0
0
0
0
0
0
0
0
0
0
0
0
0
0
0
0
0
0
0
0
0
0
0
0
0
0
0
0
1
1
0
0
0
0
0
0
0
0
0
0
0
0
0
0
0
0
0
0
0
0
1
1
0
0
0
0
0
0
0
0
0
0
0
0
0
0
0
0
0
0
0
0
0
0
0
0
0
0
0
0
0
0
0
0
0
1
1
0
0
0
0
0
0
0
0
0
0
0
0
0
0
0
0
0
0
0
0
1
1
0
0
0
0
0
0
0
0
0
0
0
0
0
0
0
0
0
0
0
0
0
0
0
0
0
0
0
0
0
0
0
0
0
1
1
0
0
0
0
0
0
0
0
0
0
0
0
0
0
0
0
0
0
0
0
1
1
0
0
0
0
0
0
0
0
0
0
0
0
0
0
0
0
0
0
0
0
0
0
0
0
0
0
0
0
0
0
0
0
0
1
1
0
0
0
0
0
0
0
0
0
0
0
0
0
0
0
0
0
0
0
0
1
1
0
0
0
0
0
0
0
0
0
0
0
0
0
0
0
0
0
0
0
0
0
0
0
0
0
0
0
0
0
0
0
0
0
1
1
0
0
0
0
0
0
0
0
0
0
0
0
0
0
0
0
0
0
0
0
1
1
0
0
0
0
0
0
0
0
0
0
0
0
0
0
0
0
0
0
0
0
0
0
0
0
0
0
0
0
0
0
0
0
0
1
1
0
0
0
0
0
0
0
0
0
0
0
0
0
0
0
0
0
0
0
0
1
1
0
0
0
0
0
0
0
0
0
0
0
0
0
0
0
0
0
0
0
0
0
0
0
0
0
0
0
0
0
0
0
0
0
1
1
0
0
0
0
0
0
0
0
0
0
0
0
0
0
0
0
0
0
0
0
1
1
0
0
0
0
0
0
0
0
0
0
0
0
0
0
0
0
0
0
0
0
0
0
0
0
0
0
0
0
0
0
0
0
0
1
1
0
0
0
0
0
0
0
0
0
0
0
0
0
0
0
0
0
0
0
0
1
1
0
0
0
0
0
0
0
0
0
0
0
0
0
0
0
0
0
0
0
0
0
0
0
0
0
0
0
0
0
0
0
0
0
1
1
0
0
0
0
0
0
0
0
0
0
0
0
0
0
0
0
0
0
0
0
1
1
0
0
0
0
0
0
0
0
0
0
0
0
0
0
0
0
0
0
0
0
0
0
0
0
0
0
0
0
0
0
0
0
0
1
1
0
0
0
0
0
0
0
0
0
0
0
0
0
0
0
0
0
0
0
0
1
1
0
0
0
0
0
0
0
0
0
0
0
0
0
0
0
0
0
0
0
0
0
0
0
0
0
0
0
0
0
0
0
0
0
1
1
0
0
0
0
0
0
0
0
0
0
0
0
0
0
0
0
0
0
0
0
1
1
0
0
0
0
0
0
0
0
0
0
0
0
0
0
0
0
0
0
0
0
0
0
0
0
0
0
0
0
0
0
0
0
0
1
1
0
0
0
0
0
0
0
0
0
0
0
0
0
0
0
0
0
0
0
0
1
1
0
0
0
0
0
0
0
0
0
0
0
0
0
0
0
0
0
0
0
0
0
0
0
0
0
0
0
0
0
0
0
0
0
1
1
0
0
0
0
0
0
0
0
0
0
0
0
0
0
0
0
0
0
0
0
1
1
0
0
0
0
0
0
0
0
0
0
0
0
0
0
0
0
0
0
0
0
0
0
0
0
0
0
0
0
0
0
0
0
0
1
1
0
0
0
0
0
0
0
0
0
0
0
0
0
0
0
0
0
0
0
0
1
1
0
0
0
0
0
0
0
0
0
0
0
0
0
0
0
0
0
0
0
0
0
0
0
0
0
0
0
0
0
0
0
0
0
1
1
0
0
0
0
0
0
0
0
0
0
0
0
0
0
0
0
0
0
0
0
1
1
0
0
0
0
0
0
0
0
0
0
0
0
0
0
0
0
0
0
0
0
0
0
0
0
0
0
0
0
0
0
0
0
0
1
1
0
0
0
0
0
0
0
0
0
0
0
0
0
0
0
0
0
0
0
0
1
1
0
0
0
0
0
0
0
0
0
0
0
0
0
0
0
0
0
0
0
0
0
0
0
0
0
0
0
0
0
0
0
0
0
1
1
1
1
1
1
1
1
1
1
1
1
1
1
1
1
1
1
1
1
1
1
1
1
1
1
1
1
1
1
1
1
1
1
1
1
1
1
1
1
1
1
1
1
1
1
1
1
1
1
1
1
1
1
1
1
1
1
				</DataArray>
				<DataArray type="Float64" Name="h" NumberOfComponents="1" Format="ascii">
1.3655838218
1.3611766117
1.3617467217
1.3628697815
1.3645151830
1.3666373228
1.3691761538
1.3720585889
1.3752001892
1.3785074712
1.3818815445
1.3852223027
1.3884331564
1.3914264854
1.3941286400
1.3964836702
1.3984551904
1.4000257237
1.4011930334
1.4019640138
1.4023481323
1.4023481323
1.1036581273
1.1065330444
1.1063305943
1.1059152568
1.1052758009
1.1043955077
1.1032525348
1.1018206828
1.1000693515
1.0979643468
1.0954690824
1.0925454278
1.0891560221
1.0852673470
1.0808534495
1.0759019369
1.0704207150
1.0644454117
1.0580474160
1.0513387330
1.0444725665
1.0376375407
1.0310421771
1.0248927818
1.0193681912
1.0145959848
1.0106385452
1.0074915313
1.0050936789
1.0033455052
1.0021306493
1.0013351406
1.0008625762
1.0006441239
1.0006441239
1.3611766117
1.3570081160
1.3575862400
1.3587270091
1.3604022815
1.3625698740
1.3651738159
1.3681453471
1.3714041607
1.3748601289
1.3784163082
1.3819725015
1.3854293548
1.3886933575
1.3916816403
1.3943258353
1.3965746035
1.3983940882
1.3997657495
1.4006820584
1.4011416554
1.4023481323
1.1065330444
1.1091769695
1.1089937976
1.1086168195
1.1080349457
1.1072316447
1.1061852566
1.1048696986
1.1032542991
1.1013044182
1.0989824242
1.0962481961
1.0930609882
1.0893820083
1.0851775536
1.0804244575
1.0751165435
1.0692721591
1.0629431159
1.0562215309
1.0492434693
1.0421870891
1.0352609348
1.0286841978
1.0226612097
1.0173540991
1.0128629086
1.0092175768
1.0063826062
1.0042735231
1.0027788910
1.0017822833
1.0011811508
1.0009003440
1.0006441239
1.3617399399
1.3576343331
1.3582005963
1.3593183105
1.3609605002
1.3630866743
1.3656430127
1.3685632699
1.3717699097
1.3751756970
1.3786865297
1.3822047967
1.3856332299
1.3888796349
1.3918614321
1.3945093283
1.3967698050
1.3986057467
1.3999946993
1.4009252174
1.4013927645
1.4026560460
1.1048805847
1.1075025147
1.1073232125
1.1069543304
1.1063853629
1.1056007156
1.1045800953
1.1032993049
1.1017301665
1.0998411949
1.0975985808
1.0949666091
1.0919092740
1.0883924185
1.0843861542
1.0798692495
1.0748342729
1.0692936614
1.0632873611
1.0568891781
1.0502113083
1.0434052981
1.0366551077
1.0301630128
1.0241288237
1.0187243109
1.0140710976
1.0102272211
1.0071852966
1.0048838601
1.0032269847
1.0021064890
1.0014227923
1.0011009446
1.0007995672
1.3628093236
1.3588286912
1.3593716965
1.3604442171
1.3620216056
1.3640667412
1.3665300764
1.3693503444
1.3724554700
1.3757638899
1.3791870381
1.3826323014
1.3860064006
1.3892196024
1.3921897813
1.3948457439
1.3971296636
1.3989980635
1.4004209002
1.4013791674
1.4018622138
1.4032351334
1.1018623673
1.1044180199
1.1042480264
1.1038983665
1.1033595121
1.1026174418
1.1016541624
1.1004486507
1.0989769210
1.0972127665
1.0951287333
1.0926963729
1.0898874168
1.0866751839
1.0830358295
1.0789510281
1.0744110299
1.0694183701
1.0639933422
1.0581793405
1.0520483975
1.0457061519
1.0392922762
1.0329757945
1.0269432121
1.0213778218
1.0164358477
1.0122248713
1.0087904342
1.0061169794
1.0041414958
1.0027748683
1.0019257782
1.0015213065
1.0011273904
1.3643468685
1.3605489792
1.3610575432
1.3620631607
1.3635447048
1.3654701379
1.3677963314
1.3704694582
1.3734255491
1.3765913899
1.3798864834
1.3832254135
1.3865205482
1.3896855306
1.3926386876
1.3953059079
1.3976230521
1.3995374790
1.4010083220
1.4020058642
1.4025108326
1.4040402062
1.0978332653
1.1002579217
1.1001043218
1.0997881429
1.0993009441
1.0986304713
1.0977613338
1.0966761192
1.0953556164
1.0937796095
1.0919278126
1.0897798992
1.0873161477
1.0845180246
1.0813681535
1.0778511564
1.0739544924
1.0696696042
1.0649948891
1.0599395448
1.0545294122
1.0488152346
1.0428802524
1.0368459107
1.0308716219
1.0251430839
1.0198506156
1.0151610793
1.0111909736
1.0079922984
1.0055551419
1.0038248014
1.0027279043
1.0021986095
1.0016607020
1.3662979102
1.3627342774
1.3631976730
1.3641155760
1.3654715832
1.3672404582
1.3693876218
1.3718690952
1.3746315532
1.3776126345
1.3807422005
1.3839439306
1.3871371761
1.3902395783
1.3931697232
1.3958495456
1.3982067929
1.4001772956
1.4017067461
1.4027522454
1.4032839753
1.4050082628
1.0932291748
1.0954458992
1.0953169063
1.0950505180
1.0946391213
1.0940718618
1.0933354906
1.0924156576
1.0912972863
1.0899653967
1.0884059860
1.0866058298
1.0845526247
1.0822348531
1.0796406575
1.0767571235
1.0735692681
1.0700589606
1.0662055120
1.0619876796
1.0573887043
1.0524058983
1.0470630044
1.0414244654
1.0356070715
1.0297807341
1.0241550585
1.0189508447
1.0143624487
1.0105264593
1.0075076770
1.0053061451
1.0038818821
1.0031857644
1.0024472244
1.3685916191
1.3653059556
1.3657143203
1.3665253812
1.3677286138
1.3693072246
1.3712372027
1.3734866716
1.3760152781
1.3787737454
1.3817042546
1.3847411108
1.3878116182
1.3908377344
1.3937379453
1.3964292407
1.3988297585
1.4008619957
1.4024563335
1.4035550177
1.4041164371
1.4060640156
1.0884856286
1.0904207928
1.0903247180
1.0901244156
1.0898124547
1.0893784534
1.0888101193
1.0880947438
1.0872197342
1.0861734657
1.0849461327
1.0835293705
1.0819160148
1.0800994765
1.0780718688
1.0758222241
1.0733342335
1.0705835402
1.0675363529
1.0641494983
1.0603736556
1.0561620861
1.0514844543
1.0463459962
1.0408086492
1.0350052306
1.0291396479
1.0234665211
1.0182505360
1.0137205795
1.0100355038
1.0072738227
1.0054502995
1.0045476309
1.0035466080
1.3711435214
1.3681706241
1.3685155098
1.3692033349
1.3702304657
1.3715899875
1.3732702175
1.3752533287
1.3775139181
1.3800176395
1.3827205439
1.3855686845
1.3884979242
1.3914345957
1.3942966378
1.3969952486
1.3994378682
1.4015325098
1.4031931938
1.4043464838
1.4049384290
1.4071265816
1.0839645960
1.0855633656
1.0855076470
1.0853877960
1.0851955779
1.0849196909
1.0845470633
1.0840646082
1.0834599547
1.0827223678
1.0818436297
1.0808175686
1.0796395931
1.0783058350
1.0768108942
1.0751454934
1.0732935707
1.0712285742
1.0689106164
1.0662847131
1.0632816556
1.0598242386
1.0558395647
1.0512790121
1.0461446578
1.0405147171
1.0345596920
1.0285378042
1.0227620115
1.0175478058
1.0131599008
1.0097785201
1.0074987619
1.0063555775
1.0050263783
1.3738572989
1.3712223794
1.3714973707
1.3720494795
1.3728827103
1.3740010963
1.3754065993
1.3770969024
1.3790630243
1.3812868922
1.3837395042
1.3863793703
1.3891512043
1.3919856066
1.3947995519
1.3974978636
1.3999767004
1.4021291515
1.4038526593
1.4050580988
1.4056792939
1.4081139201
1.0799105620
1.0811463042
1.0811370749
1.0811092761
1.0810525985
1.0809530793
1.0807947806
1.0805619184
1.0802398776
1.0798162694
1.0792819231
1.0786304060
1.0778574745
1.0769601928
1.0759345794
1.0747730944
1.0734615580
1.0719749727
1.0702737361
1.0683003932
1.0659780840
1.0632134626
1.0599055135
1.0559629370
1.0513312900
1.0460253013
1.0401593491
1.0339626637
1.0277640418
1.0219453723
1.0168766071
1.0128569317
1.0100878416
1.0086806506
1.0069565918
1.3766291698
1.3743474673
1.3745487612
1.3749576857
1.3755862427
1.3764499463
1.3775650906
1.3789456600
1.3805999095
1.3825267802
1.3847127862
1.3871292204
1.3897297148
1.3924489924
1.3952028162
1.3978894366
1.4003937259
1.4025941342
1.4043720938
1.4056235192
1.4062706900
1.4089466814
1.0764379932
1.0773134984
1.0773558820
1.0774295550
1.0775205804
1.0776102990
1.0776775940
1.0777015737
1.0776629890
1.0775455140
1.0773369180
1.0770286265
1.0766151681
1.0760933862
1.0754601445
1.0747098911
1.0738317089
1.0728050500
1.0715954628
1.0701502890
1.0683950071
1.0662327926
1.0635490025
1.0602238759
1.0561566212
1.0512995469
1.0456983087
1.0395260811
1.0330920395
1.0268128438
1.0211483260
1.0165223785
1.0132639947
1.0115851700
1.0094028861
1.3793547436
1.3774313917
1.3775582088
1.3778222714
1.3782434458
1.3788485896
1.3796682344
1.3807326456
1.3820673587
1.3836884055
1.3855978759
1.3877798517
1.3901968382
1.3927876354
1.3954668511
1.3981264476
1.4006406264
1.4028741765
1.4046937774
1.4059817098
1.4066498221
1.4095520281
1.0735447609
1.0740866865
1.0741857582
1.0743699748
1.0746198333
1.0749095796
1.0752103741
1.0754937734
1.0757336943
1.0759079921
1.0759998468
1.0759973503
1.0758929462
1.0756827431
1.0753643112
1.0749344245
1.0743863984
1.0737059876
1.0728669995
1.0718263933
1.0705190572
1.0688544754
1.0667169407
1.0639727566
1.0604888922
1.0561645793
1.0509756291
1.0450229798
1.0385655741
1.0320183675
1.0259026795
1.0207578729
1.0170507644
1.0151135891
1.0124184128
1.3819354134
1.3803655286
1.3804202414
1.3805437885
1.3807632279
1.3811158826
1.3816455697
1.3823979321
1.3834150129
1.3847293358
1.3863581545
1.3882981046
1.3905205179
1.3929684479
1.3955558126
1.3981691186
1.4006731328
1.4029205865
1.4047652224
1.4060774426
1.4067600437
1.4098647277
1.0711421370
1.0713920639
1.0715543290
1.0718605438
1.0722830465
1.0727859927
1.0733298855
1.0738761711
1.0743898955
1.0748416178
1.0752089802
1.0754762249
1.0756335283
1.0756763229
1.0756031101
1.0754133647
1.0751052024
1.0746715838
1.0740961019
1.0733479117
1.0723755539
1.0711014612
1.0694185281
1.0671919916
1.0642716804
1.0605181638
1.0558459532
1.0502800328
1.0440090333
1.0374125175
1.0310372248
1.0255138673
1.0214422749
1.0192842894
1.0160359209
1.3842856630
1.3830546234
1.3830425422
1.3830355297
1.3830666414
1.3831820725
1.3834371398
1.3838911032
1.3846009535
1.3856144771
1.3869632653
1.3886561095
1.3906732052
1.3929623387
1.3954376726
1.3979816588
1.4004514579
1.4026898843
1.4045399743
1.4058622485
1.4065519018
1.4098285387
1.0690869085
1.0690922178
1.0693275398
1.0697729738
1.0703889450
1.0711255028
1.0719288750
1.0727475496
1.0735357387
1.0742555863
1.0748787978
1.0753858860
1.0757652053
1.0760120960
1.0761265530
1.0761111972
1.0759692328
1.0757010240
1.0753002666
1.0747491166
1.0740116581
1.0730270602
1.0717034095
1.0699150582
1.0675085833
1.0643220975
1.0602235912
1.0551691772
1.0492697383
1.0428445863
1.0364291576
1.0307102448
1.0263993856
1.0240828455
1.0202604238
1.3863400220
1.3854241282
1.3853529495
1.3852298878
1.3850923766
1.3849932991
1.3849969876
1.3851738293
1.3855935278
1.3863173622
1.3873900951
1.3888321663
1.3906327967
1.3927453115
1.3950855273
1.3975337944
1.3999420405
1.4021457543
1.4039797713
1.4052967730
1.4059856323
1.4093989191
1.0672072829
1.0670138112
1.0673379581
1.0679497435
1.0687918954
1.0697946744
1.0708853412
1.0719961014
1.0730683791
1.0740551433
1.0749223305
1.0756474963
1.0762182494
1.0766309522
1.0768880258
1.0769958405
1.0769628751
1.0767966792
1.0765005750
1.0760692824
1.0754825628
1.0746978059
1.0736421011
1.0722061330
1.0702446575
1.0675888101
1.0640774960
1.0596123959
1.0542306840
1.0481782761
1.0419481831
1.0362428790
1.0318499835
1.0294586618
1.0250642006
1.3880571159
1.3874247438
1.3873037246
1.3870821035
1.3867998084
1.3865138458
1.3862946095
1.3862206117
1.3863715371
1.3868199737
1.3876224200
1.3888103716
1.3903823480
1.3922983140
1.3944775852
1.3968008776
1.3991177675
1.4012594075
1.4030551103
1.4043516026
1.4050322141
1.4085441647
1.0653190870
1.0649663003
1.0654047531
1.0662255701
1.0673444755
1.0686636553
1.0700851900
1.0715210808
1.0728980816
1.0741597217
1.0752670494
1.0761962054
1.0769358459
1.0774850648
1.0778500856
1.0780419011
1.0780745265
1.0779623336
1.0777173782
1.0773457489
1.0768418315
1.0761810148
1.0753109304
1.0741430476
1.0725488190
1.0703656296
1.0674205451
1.0635788429
1.0588163261
1.0533037517
1.0474699558
1.0419938161
1.0376940958
1.0353265250
1.0303858455
1.3894213504
1.3890346737
1.3888736785
1.3885721527
1.3881705661
1.3877273625
1.3873158562
1.3870194363
1.3869247552
1.3871132526
1.3876515175
1.3885814101
1.3899110695
1.3916084129
1.3935984633
1.3957652480
1.3979593919
1.4000111305
1.4017470875
1.4030095740
1.4036761521
1.4072480819
1.0632294949
1.0627479520
1.0633422949
1.0644388419
1.0659109572
1.0676205954
1.0694365444
1.0712461954
1.0729601547
1.0745131296
1.0758632127
1.0769876901
1.0778789364
1.0785411803
1.0789863390
1.0792312576
1.0792959569
1.0792013250
1.0789671327
1.0786092692
1.0781349803
1.0775362707
1.0767811323
1.0758039397
1.0744985175
1.0727188121
1.0702952809
1.0670752855
1.0629901416
1.0581425369
1.0528856333
1.0478413075
1.0438114526
1.0415717130
1.0361326560
1.3904416251
1.3902589693
1.3900675566
1.3897042082
1.3892081088
1.3886365909
1.3880628497
1.3875719285
1.3872543718
1.3871978754
1.3874773042
1.3881440466
1.3892161249
1.3906708095
1.3924413085
1.3944183684
1.3964576732
1.3983925788
1.4000501836
1.4012694693
1.4019202140
1.4055144306
1.0607280892
1.0601385474
1.0609581730
1.0624348359
1.0643739918
1.0665798711
1.0688779630
1.0711268128
1.0732206454
1.0750876220
1.0766864486
1.0779995110
1.0790266502
1.0797804055
1.0802808188
1.0805521901
1.0806212694
1.0805153205
1.0802608687
1.0798819345
1.0793965128
1.0788111265
1.0781127335
1.0772589021
1.0761690138
1.0747208956
1.0727607015
1.0701346772
1.0667477591
1.0626470931
1.0581075489
1.0536689673
1.0500711225
1.0480588424
1.0421869655
1.3911470791
1.3911256632
1.3909123426
1.3905032645
1.3899347858
1.3892609300
1.3885520747
1.3878919567
1.3873720637
1.3870837303
1.3871081359
1.3875051494
1.3883027480
1.3894888874
1.3910075981
1.3927602325
1.3946123887
1.3964056758
1.3979717523
1.3991471234
1.3997888037
1.4033698882
1.0575640799
1.0568775788
1.0580427654
1.0600649725
1.0626396547
1.0654893833
1.0683855424
1.0711555242
1.0736799030
1.0758855697
1.0777379214
1.0792302567
1.0803748845
1.0811966091
1.0817264956
1.0819981910
1.0820460988
1.0819038827
1.0816039976
1.0811769883
1.0806493952
1.0800397974
1.0793519432
1.0785655386
1.0776266742
1.0764416463
1.0748814256
1.0728050534
1.0701079890
1.0667965407
1.0630710112
1.0593729419
1.0563418218
1.0546432351
1.0484157307
1.3915812069
1.3916799367
1.3914517058
1.3910101174
1.3903875368
1.3896329665
1.3888117695
1.3880038370
1.3872989160
1.3867894217
1.3865607431
1.3866798818
1.3871844798
1.3880742370
1.3893066406
1.3907980402
1.3924300526
1.3940597389
1.3955298147
1.3966761866
1.3973339008
1.4008694858
1.0534044854
1.0526229347
1.0543523370
1.0571869586
1.0606457752
1.0643406086
1.0679810074
1.0713668471
1.0743739156
1.0769381572
1.0790413068
1.0806956368
1.0819321849
1.0827925773
1.0833220375
1.0835655222
1.0835660413
1.0833637444
1.0829963000
1.0824992924
1.0819056681
1.0812434872
1.0805306805
1.0797671194
1.0789251958
1.0779419459
1.0767192437
1.0751394823
1.0731028768
1.0705892660
1.0677317528
1.0648650905
1.0624997968
1.0611812695
1.0546802418
1.3917950569
1.3919770067
1.3917392003
1.3912751550
1.3906124898
1.3897940049
1.3888784171
1.3879397346
1.3870636190
1.3863411106
1.3858595385
1.3856912735
1.3858827448
1.3864458671
1.3873539053
1.3885430084
1.3899186941
1.3913644459
1.3927462677
1.3939065816
1.3946456611
1.3981067440
1.0477591121
1.0468761660
1.0495882218
1.0536736390
1.0583809749
1.0631863991
1.0677434154
1.0718422044
1.0753739419
1.0783015466
1.0806371496
1.0824222611
1.0837137643
1.0845747768
1.0850676028
1.0852501744
1.0851748117
1.0848881072
1.0844322307
1.0838464281
1.0831680500
1.0824321230
1.0816679889
1.0808931583
1.0801047915
1.0792710762
1.0783282004
1.0771891328
1.0757697454
1.0740358400
1.0720620946
1.0700741447
1.0684350086
1.0675396865
1.0608457456
1.3918413226
1.3920755058
1.3918318942
1.3913524658
1.3906597144
1.3897895562
1.3887929782
1.3877365706
1.3866999196
1.3857703446
1.3850346340
1.3845681912
1.3844244435
1.3846268808
1.3851658982
1.3860021448
1.3870750480
1.3883118408
1.3896265757
1.3908925367
1.3918696542
1.3952306682
1.0398364384
1.0388386005
1.0433764839
1.0494449578
1.0559265761
1.0621734801
1.0678275930
1.0727166042
1.0767855250
1.0800517865
1.0825761145
1.0844407020
1.0857351673
1.0865480045
1.0869606312
1.0870448374
1.0868623667
1.0864658488
1.0859011021
1.0852096971
1.0844315439
1.0836062854
1.0827719406
1.0819608736
1.0811927354
1.0804658621
1.0797519395
1.0789987096
1.0781451856
1.0771528517
1.0760466180
1.0749451665
1.0740550567
1.0736026032
1.0667895748
1.3917697177
1.3920319648
1.3917850285
1.3912948375
1.3905786908
1.3896653569
1.3885974842
1.3874331610
1.3862442398
1.3851120603
1.3841201064
1.3833436935
1.3828400636
1.3826416409
1.3827549536
1.3831680928
1.3838656333
1.3848449640
1.3861178636
1.3876612151
1.3892476059
1.3924865741
1.0282458782
1.0271134935
1.0352615885
1.0445505622
1.0535354225
1.0615899461
1.0684830344
1.0741794618
1.0787403297
1.0822734247
1.0849074399
1.0867751697
1.0880036426
1.0887085027
1.0889905784
1.0889350866
1.0886123841
1.0880801562
1.0873867409
1.0865746652
1.0856846983
1.0847589757
1.0838416360
1.0829770786
1.0822047386
1.0815510837
1.0810227136
1.0806037684
1.0802607528
1.0799576917
1.0796774474
1.0794370143
1.0792857832
1.0792745149
1.0724057373
1.3916234069
1.3918963667
1.3916476475
1.3911495455
1.3904143255
1.3894636677
1.3883316565
1.3870671831
1.3857330077
1.3844023076
1.3831521564
1.3820536432
1.3811626080
1.3805143544
1.3801255367
1.3800086260
1.3802007881
1.3808039442
1.3820201121
1.3841251303
1.3872107174
1.3903099363
1.0104337542
1.0091388123
1.0248229501
1.0393910210
1.0517763305
1.0619250441
1.0700626469
1.0764605935
1.0813754209
1.0850394123
1.0876620949
1.0894303772
1.0905083251
1.0910368475
1.0911339327
1.0908960653
1.0904002726
1.0897076278
1.0888675185
1.0879219946
1.0869111250
1.0858776755
1.0848696221
1.0839407192
1.0831473069
1.0825412983
1.0821622924
1.0820303821
1.0821412603
1.0824657448
1.0829511597
1.0835201495
1.0840708433
1.0844813772
1.0776075867
1.3914379919
1.3917104098
1.3914608403
1.3909565641
1.3902051326
1.3892214344
1.3880310724
1.3866733871
1.3852009901
1.3836768345
1.3821681711
1.3807365791
1.3794286076
1.3782710884
1.3772753034
1.3764598387
1.3759023113
1.3758331170
1.3767890884
1.3798194221
1.3865659595
1.3895137884
0.9829977884
0.9814903885
1.0128626628
1.0354708529
1.0518473941
1.0639510710
1.0730130344
1.0797948367
1.0847976186
1.0883826365
1.0908321300
1.0923772724
1.0932106376
1.0934915905
1.0933500539
1.0928898128
1.0921915393
1.0913174112
1.0903161115
1.0892277505
1.0880903015
1.0869455954
1.0858435036
1.0848447161
1.0840196228
1.0834425152
1.0831831380
1.0832955176
1.0838041381
1.0846887255
1.0858664343
1.0871742561
1.0883699208
1.0891694829
1.0823281517
1.3912414620
1.3915070221
1.3912571885
1.3907478995
1.3899824239
1.3889693385
1.3877261153
1.3862825350
1.3846803879
1.3829706507
1.3812073267
1.3794363631
1.3776843984
1.3759516035
1.3742130258
1.3724432084
1.3706889833
1.3692487549
1.3691225637
1.3731586615
1.3888662739
1.3916615086
0.9549568922
0.9531626765
1.0080952464
1.0377895067
1.0562373305
1.0688140966
1.0778158139
1.0843466843
1.0890245564
1.0922560949
1.0943454488
1.0955375934
1.0960350278
1.0960037962
1.0955780108
1.0948634921
1.0939408725
1.0928708464
1.0916995602
1.0904638188
1.0891983404
1.0879427944
1.0867473949
1.0856776901
1.0848154305
1.0842540644
1.0840900214
1.0844081204
1.0852596979
1.0866339092
1.0884222226
1.0903855709
1.0921556099
1.0933022230
1.0865180243
1.3910540075
1.3913100153
1.3910603252
1.3905469710
1.3897694538
1.3887306781
1.3874406057
1.3859198571
1.3841993003
1.3823169020
1.3803107382
1.3782053739
1.3759955916
1.3736295015
1.3709889547
1.3678690096
1.3639452789
1.3586841625
1.3510700399
1.3387115874
1.3147032949
1.2402831517
1.1272020670
1.1231290778
1.0726863890
1.0428875607
1.0477969330
1.0583699820
1.0687596101
1.0776025950
1.0846575029
1.0900179358
1.0938832768
1.0964821772
1.0980415294
1.0987729751
1.0988647626
1.0984761242
1.0977372343
1.0967507384
1.0955937482
1.0943231296
1.0929809233
1.0915995636
1.0902097001
1.0888480091
1.0875639205
1.0864261555
1.0855253970
1.0849710443
1.0848824120
1.0853712358
1.0865127210
1.0883048968
1.0906174482
1.0931454420
1.0954110028
1.0968571138
1.0901431011
1.3908897193
1.3911358420
1.3908865984
1.3903700919
1.3895826404
1.3885222681
1.3871923398
1.3856052219
1.3837816162
1.3817469082
1.3795231580
1.3771127870
1.3744773063
1.3715115580
1.3680072151
1.3636023611
1.3576975341
1.3492822328
1.3365682898
1.3162042398
1.2816828626
1.2165428257
1.1243656160
1.1203162837
1.0963768234
1.0765530383
1.0722733328
1.0753461732
1.0809161536
1.0867462504
1.0918692199
1.0959209770
1.0988364835
1.1006991894
1.1016583057
1.1018847813
1.1015453819
1.1007868242
1.0997310964
1.0984745900
1.0970887210
1.0956250521
1.0941205832
1.0926028293
1.0910980191
1.0896394506
1.0882750871
1.0870755499
1.0861383410
1.0855857345
1.0855559966
1.0861834791
1.0875636368
1.0897021799
1.0924506082
1.0954487088
1.0981268673
1.0998221935
1.0931814340
1.3907578182
1.3909950095
1.3907464125
1.3902276553
1.3894325122
1.3883550530
1.3869932236
1.3853525189
1.3834450548
1.3812854718
1.3788821489
1.3762189217
1.3732305470
1.3697721949
1.3655758022
1.3601927569
1.3529121961
1.3426250113
1.3276168042
1.3053076220
1.2721553998
1.2234938473
1.1665948324
1.1413710821
1.1185156992
1.1007760292
1.0922304483
1.0903738436
1.0921234903
1.0953002320
1.0986153760
1.1014026128
1.1033890576
1.1045323117
1.1049098063
1.1046528727
1.1039061870
1.1028028625
1.1014555810
1.0999535306
1.0983617702
1.0967261792
1.0950785968
1.0934417116
1.0918375073
1.0902959874
1.0888634061
1.0876114149
1.0866425483
1.0860890730
1.0861042765
1.0868406289
1.0884098869
1.0908239409
1.0939196110
1.0972922500
1.1002988658
1.1021923491
1.0956197344
1.3906625978
1.3908922243
1.3906443071
1.3901240625
1.3893233963
1.3882334448
1.3868481064
1.3851677249
1.3831979734
1.3809454762
1.3784086081
1.3755581147
1.3723110508
1.3684988725
1.3638231626
1.3578031473
1.3497151132
1.3385158784
1.3227823562
1.3007580725
1.2707329794
1.2319745415
1.1899552940
1.1602650832
1.1363999130
1.1183679854
1.1073723459
1.1023420244
1.1012919317
1.1023568451
1.1041711155
1.1058923417
1.1070946958
1.1076333016
1.1075246649
1.1068660214
1.1057829530
1.1043967281
1.1028117973
1.1011109124
1.0993534723
1.0975803609
1.0958189692
1.0940879128
1.0924056397
1.0907993913
1.0893138752
1.0880212663
1.0870276504
1.0864726164
1.0865206240
1.0873377140
1.0890478752
1.0916675884
1.0950225390
1.0986746538
1.1019260609
1.1039670238
1.0974510566
1.3906051260
1.3908282443
1.3905807906
1.3900594963
1.3892550891
1.3881568450
1.3867560943
1.3850499301
1.3830400009
1.3807280122
1.3781063988
1.3751384919
1.3717319968
1.3677072697
1.3627546868
1.3563889684
1.3479077576
1.3363579080
1.3205588092
1.2992759357
1.2716882817
1.2382823536
1.2029576619
1.1731155353
1.1486778419
1.1300008794
1.1175098314
1.1105392138
1.1076536901
1.1072548186
1.1079986133
1.1089565697
1.1096039031
1.1097213286
1.1092787334
1.1083468397
1.1070364839
1.1054599950
1.1037157699
1.1018819351
1.1000139058
1.0981491128
1.0963119232
1.0945182149
1.0927840763
1.0911349057
1.0896143618
1.0882949342
1.0872850322
1.0867290879
1.0867989918
1.0876698350
1.0894737628
1.0922302836
1.0957575891
1.0995952821
1.1030090238
1.1051476635
1.0986721886
1.3905836764
1.3908003605
1.3905528204
1.3900303763
1.3892232709
1.3881200121
1.3867108815
1.3849916827
1.3829625266
1.3806233365
1.3779645546
1.3749472247
1.3714764471
1.3673700352
1.3623170442
1.3558357438
1.3472414156
1.3356315084
1.3199423238
1.2991645530
1.2728149162
1.2417091228
1.2089946897
1.1795151151
1.1548597042
1.1357598922
1.1224990318
1.1145520907
1.1107194698
1.1095491999
1.1097290933
1.1102960675
1.1106735248
1.1105987174
1.1100123845
1.1089679174
1.1075663892
1.1059144761
1.1041071437
1.1022202714
1.1003075974
1.0984052525