<VTKFile type="UnstructuredGrid" version="0.1">
	<UnstructuredGrid>
		<Piece NumberOfPoints="13548" NumberOfCells="3387">
			<CellData>
				<DataArray type="Int32" Name="ghost" NumberOfComponents="1" Format="ascii">
1
1
1
1
1
1
1
1
1
1
1
1
1
1
1
1
1
1
1
1
1
1
1
1
1
1
1
1
1
1
1
1
1
1
1
1
1
1
1
1
1
1
1
1
1
1
1
1
1
1
1
1
1
1
1
1
1
1
0
0
0
0
0
0
0
0
0
0
0
0
0
0
0
0
0
0
0
0
1
1
0
0
0
0
0
0
0
0
0
0
0
0
0
0
0
0
0
0
0
0
0
0
0
0
0
0
0
0
0
0
0
0
0
1
1
0
0
0
0
0
0
0
0
0
0
0
0
0
0
0
0
0
0
0
0
1
1
0
0
0
0
0
0
0
0
0
0
0
0
0
0
0
0
0
0
0
0
0
0
0
0
0
0
0
0
0
0
0
0
0
1
1
0
0
0
0
0
0
0
0
0
0
0
0
0
0
0
0
0
0
0
0
1
1
0
0
0
0
0
0
0
0
0
0
0
0
0
0
0
0
0
0
0
0
0
0
0
0
0
0
0
0
0
0
0
0
0
1
1
0
0
0
0
0
0
0
0
0
0
0
0
0
0
0
0
0
0
0
0
1
1
0
0
0
0
0
0
0
0
0
0
0
0
0
0
0
0
0
0
0
0
0
0
0
0
0
0
0
0
0
0
0
0
0
1
1
0
0
0
0
0
0
0
0
0
0
0
0
0
0
0
0
0
0
0
0
1
1
0
0
0
0
0
0
0
0
0
0
0
0
0
0
0
0
0
0
0
0
0
0
0
0
0
0
0
0
0
0
0
0
0
1
1
0
0
0
0
0
0
0
0
0
0
0
0
0
0
0
0
0
0
0
0
1
1
0
0
0
0
0
0
0
0
0
0
0
0
0
0
0
0
0
0
0
0
0
0
0
0
0
0
0
0
0
0
0
0
0
1
1
0
0
0
0
0
0
0
0
0
0
0
0
0
0
0
0
0
0
0
0
1
1
0
0
0
0
0
0
0
0
0
0
0
0
0
0
0
0
0
0
0
0
0
0
0
0
0
0
0
0
0
0
0
0
0
1
1
0
0
0
0
0
0
0
0
0
0
0
0
0
0
0
0
0
0
0
0
1
1
0
0
0
0
0
0
0
0
0
0
0
0
0
0
0
0
0
0
0
0
0
0
0
0
0
0
0
0
0
0
0
0
0
1
1
0
0
0
0
0
0
0
0
0
0
0
0
0
0
0
0
0
0
0
0
1
1
0
0
0
0
0
0
0
0
0
0
0
0
0
0
0
0
0
0
0
0
0
0
0
0
0
0
0
0
0
0
0
0
0
1
1
0
0
0
0
0
0
0
0
0
0
0
0
0
0
0
0
0
0
0
0
1
1
0
0
0
0
0
0
0
0
0
0
0
0
0
0
0
0
0
0
0
0
0
0
0
0
0
0
0
0
0
0
0
0
0
1
1
0
0
0
0
0
0
0
0
0
0
0
0
0
0
0
0
0
0
0
0
1
1
0
0
0
0
0
0
0
0
0
0
0
0
0
0
0
0
0
0
0
0
0
0
0
0
0
0
0
0
0
0
0
0
0
1
1
0
0
0
0
0
0
0
0
0
0
0
0
0
0
0
0
0
0
0
0
1
1
0
0
0
0
0
0
0
0
0
0
0
0
0
0
0
0
0
0
0
0
0
0
0
0
0
0
0
0
0
0
0
0
0
1
1
0
0
0
0
0
0
0
0
0
0
0
0
0
0
0
0
0
0
0
0
1
1
0
0
0
0
0
0
0
0
0
0
0
0
0
0
0
0
0
0
0
0
0
0
0
0
0
0
0
0
0
0
0
0
0
1
1
0
0
0
0
0
0
0
0
0
0
0
0
0
0
0
0
0
0
0
0
1
1
0
0
0
0
0
0
0
0
0
0
0
0
0
0
0
0
0
0
0
0
0
0
0
0
0
0
0
0
0
0
0
0
0
1
1
0
0
0
0
0
0
0
0
0
0
0
0
0
0
0
0
0
0
0
0
1
1
0
0
0
0
0
0
0
0
0
0
0
0
0
0
0
0
0
0
0
0
0
0
0
0
0
0
0
0
0
0
0
0
0
1
1
0
0
0
0
0
0
0
0
0
0
0
0
0
0
0
0
0
0
0
0
1
1
0
0
0
0
0
0
0
0
0
0
0
0
0
0
0
0
0
0
0
0
0
0
0
0
0
0
0
0
0
0
0
0
0
1
1
0
0
0
0
0
0
0
0
0
0
0
0
0
0
0
0
0
0
0
0
1
1
0
0
0
0
0
0
0
0
0
0
0
0
0
0
0
0
0
0
0
0
0
0
0
0
0
0
0
0
0
0
0
0
0
1
1
0
0
0
0
0
0
0
0
0
0
0
0
0
0
0
0
0
0
0
0
1
1
0
0
0
0
0
0
0
0
0
0
0
0
0
0
0
0
0
0
0
0
0
0
0
0
0
0
0
0
0
0
0
0
0
1
1
0
0
0
0
0
0
0
0
0
0
0
0
0
0
0
0
0
0
0
0
1
1
0
0
0
0
0
0
0
0
0
0
0
0
0
0
0
0
0
0
0
0
0
0
0
0
0
0
0
0
0
0
0
0
0
1
1
0
0
0
0
0
0
0
0
0
0
0
0
0
0
0
0
0
0
0
0
1
1
0
0
0
0
0
0
0
0
0
0
0
0
0
0
0
0
0
0
0
0
0
0
0
0
0
0
0
0
0
0
0
0
0
1
1
0
0
0
0
0
0
0
0
0
0
0
0
0
0
0
0
0
0
0
0
1
1
0
0
0
0
0
0
0
0
0
0
0
0
0
0
0
0
0
0
0
0
0
0
0
0
0
0
0
0
0
0
0
0
0
1
1
0
0
0
0
0
0
0
0
0
0
0
0
0
0
0
0
0
0
0
0
1
1
0
0
0
0
0
0
0
0
0
0
0
0
0
0
0
0
0
0
0
0
0
0
0
0
0
0
0
0
0
0
0
0
0
1
1
0
0
0
0
0
0
0
0
0
0
0
0
0
0
0
0
0
0
0
0
1
1
0
0
0
0
0
0
0
0
0
0
0
0
0
0
0
0
0
0
0
0
0
0
0
0
0
0
0
0
0
0
0
0
0
1
1
0
0
0
0
0
0
0
0
0
0
0
0
0
0
0
0
0
0
0
0
1
1
0
0
0
0
0
0
0
0
0
0
0
0
0
0
0
0
0
0
0
0
0
0
0
0
0
0
0
0
0
0
0
0
0
1
1
0
0
0
0
0
0
0
0
0
0
0
0
0
0
0
0
0
0
0
0
0
1
1
0
0
0
0
0
0
0
0
0
0
0
0
0
0
0
0
0
0
0
0
0
0
0
0
0
0
0
0
0
0
0
0
0
0
1
1
0
0
0
0
0
0
0
0
0
0
0
0
0
0
0
0
0
0
0
0
0
0
0
0
0
0
0
0
0
0
0
0
0
0
0
0
0
0
0
0
0
0
0
0
0
0
0
0
0
0
0
0
0
0
0
0
0
1
1
0
0
0
0
0
0
0
0
0
0
0
0
0
0
0
0
0
0
0
0
0
0
0
0
0
0
0
0
0
0
0
0
0
0
0
0
0
0
0
0
0
0
0
0
0
0
0
0
0
0
0
0
0
0
0
0
0
1
1
0
0
0
0
0
0
0
0
0
0
0
0
0
0
0
0
0
0
0
0
0
0
0
0
0
0
0
0
0
0
0
0
0
0
0
0
0
0
0
0
0
0
0
0
0
0
0
0
0
0
0
0
0
0
0
0
0
1
1
0
0
0
0
0
0
0
0
0
0
0
0
0
0
0
0
0
0
0
0
0
0
0
0
0
0
0
0
0
0
0
0
0
0
0
0
0
0
0
0
0
0
0
0
0
0
0
0
0
0
0
0
0
0
0
0
0
1
1
0
0
0
0
0
0
0
0
0
0
0
0
0
0
0
0
0
0
0
0
0
0
0
0
0
0
0
0
0
0
0
0
0
0
0
0
0
0
0
0
0
0
0
0
0
0
0
0
0
0
0
0
0
0
0
0
0
1
1
0
0
0
0
0
0
0
0
0
0
0
0
0
0
0
0
0
0
0
0
0
0
0
0
0
0
0
0
0
0
0
0
0
0
0
0
0
0
0
0
0
0
0
0
0
0
0
0
0
0
0
0
0
0
0
0
0
1
1
0
0
0
0
0
0
0
0
0
0
0
0
0
0
0
0
0
0
0
0
0
0
0
0
0
0
0
0
0
0
0
0
0
0
0
0
0
0
0
0
0
0
0
0
0
0
0
0
0
0
0
0
0
0
0
0
0
1
1
0
0
0
0
0
0
0
0
0
0
0
0
0
0
0
0
0
0
0
0
0
0
0
0
0
0
0
0
0
0
0
0
0
0
0
0
0
0
0
0
0
0
0
0
0
0
0
0
0
0
0
0
0
0
0
0
0
1
1
0
0
0
0
0
0
0
0
0
0
0
0
0
0
0
0
0
0
0
0
0
0
0
0
0
0
0
0
0
0
0
0
0
0
0
0
0
0
0
0
0
0
0
0
0
0
0
0
0
0
0
0
0
0
0
0
0
1
1
0
0
0
0
0
0
0
0
0
0
0
0
0
0
0
0
0
0
0
0
0
0
0
0
0
0
0
0
0
0
0
0
0
0
0
0
0
0
0
0
0
0
0
0
0
0
0
0
0
0
0
0
0
0
0
0
0
1
1
0
0
0
0
0
0
0
0
0
0
0
0
0
0
0
0
0
0
0
0
0
1
1
0
0
0
0
0
0
0
0
0
0
0
0
0
0
0
0
0
0
0
0
0
0
0
0
0
0
0
0
0
0
0
0
0
0
1
1
0
0
0
0
0
0
0
0
0
0
0
0
0
0
0
0
0
0
0
0
1
1
0
0
0
0
0
0
0
0
0
0
0
0
0
0
0
0
0
0
0
0
0
0
0
0
0
0
0
0
0
0
0
0
0
1
1
0
0
0
0
0
0
0
0
0
0
0
0
0
0
0
0
0
0
0
0
1
1
0
0
0
0
0
0
0
0
0
0
0
0
0
0
0
0
0
0
0
0
0
0
0
0
0
0
0
0
0
0
0
0
0
1
1
0
0
0
0
0
0
0
0
0
0
0
0
0
0
0
0
0
0
0
0
1
1
0
0
0
0
0
0
0
0
0
0
0
0
0
0
0
0
0
0
0
0
0
0
0
0
0
0
0
0
0
0
0
0
0
1
1
0
0
0
0
0
0
0
0
0
0
0
0
0
0
0
0
0
0
0
0
1
1
0
0
0
0
0
0
0
0
0
0
0
0
0
0
0
0
0
0
0
0
0
0
0
0
0
0
0
0
0
0
0
0
0
1
1
0
0
0
0
0
0
0
0
0
0
0
0
0
0
0
0
0
0
0
0
1
1
0
0
0
0
0
0
0
0
0
0
0
0
0
0
0
0
0
0
0
0
0
0
0
0
0
0
0
0
0
0
0
0
0
1
1
0
0
0
0
0
0
0
0
0
0
0
0
0
0
0
0
0
0
0
0
1
1
0
0
0
0
0
0
0
0
0
0
0
0
0
0
0
0
0
0
0
0
0
0
0
0
0
0
0
0
0
0
0
0
0
1
1
0
0
0
0
0
0
0
0
0
0
0
0
0
0
0
0
0
0
0
0
1
1
0
0
0
0
0
0
0
0
0
0
0
0
0
0
0
0
0
0
0
0
0
0
0
0
0
0
0
0
0
0
0
0
0
1
1
0
0
0
0
0
0
0
0
0
0
0
0
0
0
0
0
0
0
0
0
1
1
0
0
0
0
0
0
0
0
0
0
0
0
0
0
0
0
0
0
0
0
0
0
0
0
0
0
0
0
0
0
0
0
0
1
1
0
0
0
0
0
0
0
0
0
0
0
0
0
0
0
0
0
0
0
0
1
1
0
0
0
0
0
0
0
0
0
0
0
0
0
0
0
0
0
0
0
0
0
0
0
0
0
0
0
0
0
0
0
0
0
1
1
0
0
0
0
0
0
0
0
0
0
0
0
0
0
0
0
0
0
0
0
1
1
0
0
0
0
0
0
0
0
0
0
0
0
0
0
0
0
0
0
0
0
0
0
0
0
0
0
0
0
0
0
0
0
0
1
1
0
0
0
0
0
0
0
0
0
0
0
0
0
0
0
0
0
0
0
0
1
1
0
0
0
0
0
0
0
0
0
0
0
0
0
0
0
0
0
0
0
0
0
0
0
0
0
0
0
0
0
0
0
0
0
1
1
0
0
0
0
0
0
0
0
0
0
0
0
0
0
0
0
0
0
0
0
1
1
0
0
0
0
0
0
0
0
0
0
0
0
0
0
0
0
0
0
0
0
0
0
0
0
0
0
0
0
0
0
0
0
0
1
1
0
0
0
0
0
0
0
0
0
0
0
0
0
0
0
0
0
0
0
0
1
1
0
0
0
0
0
0
0
0
0
0
0
0
0
0
0
0
0
0
0
0
0
0
0
0
0
0
0
0
0
0
0
0
0
1
1
0
0
0
0
0
0
0
0
0
0
0
0
0
0
0
0
0
0
0
0
1
1
0
0
0
0
0
0
0
0
0
0
0
0
0
0
0
0
0
0
0
0
0
0
0
0
0
0
0
0
0
0
0
0
0
1
1
0
0
0
0
0
0
0
0
0
0
0
0
0
0
0
0
0
0
0
0
1
1
0
0
0
0
0
0
0
0
0
0
0
0
0
0
0
0
0
0
0
0
0
0
0
0
0
0
0
0
0
0
0
0
0
1
1
0
0
0
0
0
0
0
0
0
0
0
0
0
0
0
0
0
0
0
0
1
1
0
0
0
0
0
0
0
0
0
0
0
0
0
0
0
0
0
0
0
0
0
0
0
0
0
0
0
0
0
0
0
0
0
1
1
0
0
0
0
0
0
0
0
0
0
0
0
0
0
0
0
0
0
0
0
1
1
0
0
0
0
0
0
0
0
0
0
0
0
0
0
0
0
0
0
0
0
0
0
0
0
0
0
0
0
0
0
0
0
0
1
1
0
0
0
0
0
0
0
0
0
0
0
0
0
0
0
0
0
0
0
0
1
1
0
0
0
0
0
0
0
0
0
0
0
0
0
0
0
0
0
0
0
0
0
0
0
0
0
0
0
0
0
0
0
0
0
1
1
0
0
0
0
0
0
0
0
0
0
0
0
0
0
0
0
0
0
0
0
1
1
0
0
0
0
0
0
0
0
0
0
0
0
0
0
0
0
0
0
0
0
0
0
0
0
0
0
0
0
0
0
0
0
0
1
1
0
0
0
0
0
0
0
0
0
0
0
0
0
0
0
0
0
0
0
0
1
1
0
0
0
0
0
0
0
0
0
0
0
0
0
0
0
0
0
0
0
0
0
0
0
0
0
0
0
0
0
0
0
0
0
1
1
0
0
0
0
0
0
0
0
0
0
0
0
0
0
0
0
0
0
0
0
1
1
0
0
0
0
0
0
0
0
0
0
0
0
0
0
0
0
0
0
0
0
0
0
0
0
0
0
0
0
0
0
0
0
0
1
1
1
1
1
1
1
1
1
1
1
1
1
1
1
1
1
1
1
1
1
1
1
1
1
1
1
1
1
1
1
1
1
1
1
1
1
1
1
1
1
1
1
1
1
1
1
1
1
1
1
1
1
1
1
1
1
1
				</DataArray>
				<DataArray type="Float64" Name="h" NumberOfComponents="1" Format="ascii">
1.2011077890
1.2007154611
1.2008884505
1.2012300900
1.2017316003
1.2023802217
1.2031595059
1.2040497034
1.2050284049
1.2060710382
1.2071515248
1.2082430530
1.2093186511
1.2103519302
1.2113177764
1.2121928349
1.2129561456
1.2135895832
1.2140781417
1.2144103449
1.2145783965
1.2145783965
1.1596171235
1.1599742367
1.1602706601
1.1608627437
1.1617446248
1.1629076867
1.1643403235
1.1660274966
1.1679510301
1.1700894229
1.1724177375
1.1749082588
1.1775307046
1.1802527190
1.1830409936
1.1858618187
1.1886819176
1.1914695716
1.1941950808
1.1968314812
1.1993551194
1.2017456022
1.2039860644
1.2060630593
1.2079660606
1.2096874318
1.2112219025
1.2125659491
1.2137177486
1.2146765376
1.2154421136
1.2160149319
1.2163955170
1.2165841959
1.2165841959
1.2007154611
1.2003489579
1.2005173069
1.2008497435
1.2013375784
1.2019682026
1.2027253957
1.2035897240
1.2045392001
1.2055497894
1.2065960653
1.2076519831
1.2086914431
1.2096890133
1.2106205915
1.2114638522
1.2121988400
1.2128083566
1.2132781989
1.2135975366
1.2137590244
1.2145783965
1.1599742367
1.1604072525
1.1607078346
1.1613081372
1.1622017018
1.1633790594
1.1648275323
1.1665308325
1.1684694403
1.1706204921
1.1729577448
1.1754523320
1.1780730468
1.1807868946
1.1835602694
1.1863594827
1.1891516262
1.1919056445
1.1945927402
1.1971870259
1.1996660157
1.2020105047
1.2042047800
1.2062364545
1.2080959398
1.2097764071
1.2112732496
1.2125834741
1.2137056750
1.2146393991
1.2153846678
1.2159420978
1.2163123179
1.2164957166
1.2165841959
1.2006956305
1.2003405466
1.2005081128
1.2008389831
1.2013244638
1.2019519437
1.2027052090
1.2035648474
1.2045089149
1.2055134482
1.2065531237
1.2076020336
1.2086342483
1.2096245356
1.2105490160
1.2113855999
1.2121145697
1.2127189531
1.2131847486
1.2135012901
1.2136613491
1.2144723209
1.1601766392
1.1606071783
1.1609070285
1.1615058626
1.1623972615
1.1635718096
1.1650168931
1.1667162954
1.1686505701
1.1707969254
1.1731291875
1.1756185532
1.1782338724
1.1809421988
1.1837099857
1.1865035543
1.1892900395
1.1920384361
1.1947200000
1.1973088982
1.1997826981
1.2021222442
1.2043118677
1.2063392190
1.2081947404
1.2098716255
1.2113652832
1.2126727291
1.2137925608
1.2147243241
1.2154680372
1.2160243116
1.2163937717
1.2165768031
1.2166751097
1.2006526173
1.2003203572
1.2004863848
1.2008141763
1.2012950279
1.2019163227
1.2026618574
1.2035122601
1.2044456705
1.2054382636
1.2064649182
1.2074999955
1.2085179014
1.2094937990
1.2104042492
1.2112276295
1.2119446942
1.2125389196
1.2129967044
1.2133077099
1.2134649395
1.2142592904
1.1605763809
1.1610018407
1.1613002688
1.1618962476
1.1627834328
1.1639525096
1.1653909846
1.1670827752
1.1690085719
1.1711457173
1.1734681671
1.1759472367
1.1785518849
1.1812492631
1.1840059413
1.1867883116
1.1895636069
1.1923009237
1.1949716219
1.1975499725
1.2000136418
1.2023435660
1.2045241573
1.2065431341
1.2083909936
1.2100609690
1.2115484946
1.2128506002
1.2139658856
1.2148938916
1.2156346280
1.2161886940
1.2165567034
1.2167390352
1.2168564938
1.2005824977
1.2002844786
1.2004482389
1.2007714937
1.2012455235
1.2018577021
1.2025918411
1.2034286265
1.2043463196
1.2053212986
1.2063287393
1.2073433990
1.2083401783
1.2092948233
1.2101845450
1.2109884120
1.2116878765
1.2122670796
1.2127130146
1.2130158291
1.2131688719
1.2139386359
1.1611671632
1.1615843982
1.1618807049
1.1624724246
1.1633533252
1.1645142436
1.1659428659
1.1676233094
1.1695364678
1.1716598828
1.1739677008
1.1764314132
1.1790201403
1.1817011841
1.1844412738
1.1872069431
1.1899655743
1.1926864154
1.1953409803
1.1979036920
1.2003523611
1.2026680572
1.2048353093
1.2068419340
1.2086785070
1.2103383166
1.2118168323
1.2131111015
1.2142197238
1.2151422299
1.2158786139
1.2164294544
1.2167953474
1.2169766604
1.2171218141
1.2004795179
1.2002271541
1.2003879580
1.2007052978
1.2011704330
1.2017707250
1.2024900037
1.2033090288
1.2042062182
1.2051582130
1.2061405744
1.2071285747
1.2080977585
1.2090246324
1.2098872560
1.2106656018
1.2113420366
1.2119015746
1.2123319913
1.2126240756
1.2127716325
1.2135092132
1.1619395396
1.1623446609
1.1626381364
1.1632241747
1.1640966975
1.1652467481
1.1666622563
1.1683276094
1.1702239740
1.1723291578
1.1746175617
1.1770609107
1.1796285395
1.1822879502
1.1850060741
1.1877496510
1.1904862633
1.1931853581
1.1958186511
1.1983607635
1.2007896933
1.2030866838
1.2052364161
1.2072268340
1.2090486143
1.2106951156
1.2121618501
1.2134458852
1.2145458168
1.2154611580
1.2161918789
1.2167385272
1.2171016729
1.2172816656
1.2174619421
1.2003363232
1.2001409823
1.2002981918
1.2006083410
1.2010626641
1.2016485064
1.2023497185
1.2031471474
1.2040193979
1.2049434268
1.2058952598
1.2068507920
1.2077863483
1.2086793587
1.2095089164
1.2102560977
1.2109043898
1.2114398799
1.2118513081
1.2121302565
1.2122710960
1.2129693714
1.1628810594
1.1632693108
1.1635592338
1.1641381492
1.1650001798
1.1661366369
1.1675357655
1.1691822983
1.1710577494
1.1731402627
1.1754045580
1.1778226515
1.1803641443
1.1829967863
1.1856877455
1.1884040315
1.1911134725
1.1937857583
1.1963928503
1.1989096103
1.2013142647
1.2035882687
1.2057164887
1.2076870239
1.2094906735
1.2111208802
1.2125732064
1.2138447403
1.2149340690
1.2158406795
1.2165645079
1.2171060601
1.2174658697
1.2176442625
1.2178656917
1.2001444078
1.2000173402
1.2001703772
1.2004721817
1.2009139575
1.2014830309
1.2021632741
1.2029356317
1.2037789199
1.2046704549
1.2055867946
1.2065045493
1.2074009443
1.2082544787
1.2090454472
1.2097562155
1.2103715861
1.2108789133
1.2112680819
1.2115316202
1.2116645757
1.2123169822
1.1639768104
1.1643425294
1.1646281607
1.1651984830
1.1660478759
1.1671679916
1.1685474708
1.1701714762
1.1720219494
1.1740774435
1.1763130635
1.1787011730
1.1812116889
1.1838126536
1.1864714998
1.1891555606
1.1918329544
1.1944736489
1.1970498897
1.1995368184
1.2019129260
1.2041599149
1.2062628685
1.2082100670
1.2099924531
1.2116035666
1.2130390263
1.2142959420
1.2153728862
1.2162693107
1.2169851067
1.2175207263
1.2178766567
1.2180531924
1.2183201947
1.1998942244
1.1998464608
1.1999948161
1.2002872599
1.2007149618
1.2012652244
1.2019219413
1.2026661604
1.2034769266
1.2043319481
1.2052083667
1.2060835832
1.2069358219
1.2077447755
1.2084920892
1.2091615870
1.2097395733
1.2102148610
1.2105786647
1.2108246202
1.2109485729
1.2115491764
1.1652096649
1.1655463560
1.1658269322
1.1663871520
1.1672217232
1.1683227268
1.1696792946
1.1712771147
1.1730986435
1.1751229198
1.1773254989
1.1796791458
1.1821541382
1.1847188498
1.1873409956
1.1899882791
1.1926291358
1.1952338476
1.1977749723
1.2002279631
1.2025716086
1.2047878888
1.2068621326
1.2087828257
1.2105410736
1.2121305261
1.2135468648
1.2147872221
1.2158501505
1.2167350581
1.2174417810
1.2179707054
1.2183222622
1.2184967080
1.2188119592
1.1995756517
1.1996178561
1.1997610965
1.2000433170
1.2004556483
1.2009853642
1.2016163760
1.2023298352
1.2031050232
1.2039200592
1.2047527029
1.2055811973
1.2063848395
1.2071446154
1.2078436463
1.2084673676
1.2090037640
1.2094433027
1.2097787279
1.2100049674
1.2101188102
1.2106623648
1.1665607452
1.1668612575
1.1671359747
1.1676845207
1.1685020241
1.1695811073
1.1709115099
1.1724795556
1.1742683112
1.1762573801
1.1784228308
1.1807378785
1.1831731977
1.1856975237
1.1882788606
1.1908853152
1.1934856563
1.1960504959
1.1985527335
1.2009681543
1.2032758698
1.2054581648
1.2075006379
1.2093920025
1.2111235455
1.2126890394
1.2140842361
1.2153062932
1.2163537399
1.2172259335
1.2179226470
1.2184441902
1.2187909289
1.2189630756
1.2193274550
1.1991786134
1.1993209020
1.1994586741
1.1997299704
1.2001258768
1.2006336313
1.2012371555
1.2019176977
1.2026547727
1.2034269137
1.2042125103
1.2049906731
1.2057418168
1.2064482888
1.2070947855
1.2076684909
1.2081592419
1.2085593673
1.2088633708
1.2090677000
1.2091702785
1.2096522648
1.1680103879
1.1682671775
1.1685351593
1.1690703438
1.1698684106
1.1709226743
1.1722236286
1.1737583634
1.1755106614
1.1774607702
1.1795853299
1.1818580441
1.1842500101
1.1867303412
1.1892673292
1.1918294867
1.1943859279
1.1969075968
1.1993677462
1.2017425119
1.2040113428
1.2061568492
1.2081649212
1.2100245194
1.2117271296
1.2132666600
1.2146389421
1.2158411636
1.2168718308
1.2177302470
1.2184161165
1.2189296657
1.2192711883
1.2194408483
1.2198534765
1.1986935219
1.1989452417
1.1990772752
1.1993371140
1.1997157925
1.2002005031
1.2007751649
1.2014211078
1.2021180634
1.2028449624
1.2035808109
1.2043055820
1.2050008150
1.2056502536
1.2062402377
1.2067598121
1.2072008413
1.2075577449
1.2078270642
1.2080070700
1.2080970921
1.2085137536
1.1695388523
1.1697443224
1.1700045639
1.1705244922
1.1713005313
1.1723268956
1.1735950249
1.1750929314
1.1768052294
1.1787128888
1.1807931688
1.1830202854
1.1853657674
1.1877991061
1.1902888660
1.1928039394
1.1953137732
1.1977896465
1.2002051629
1.2025368100
1.2047643825
1.2068708302
1.2088423508
1.2106681698
1.2123399892
1.2138518673
1.2151997261
1.2163807926
1.2173935545
1.2182372628
1.2189115533
1.2194165652
1.2197525171
1.2199195221
1.2203778837
1.1981121016
1.1984815587
1.1986076668
1.1988556846
1.1992165866
1.1996775061
1.2002223412
1.2008324777
1.2014878313
1.2021676912
1.2028516363
1.2035204583
1.2041567878
1.2047457531
1.2052753671
1.2057366245
1.2061235885
1.2064330382
1.2066639125
1.2068167229
1.2068926143
1.2072410012
1.1711271559
1.1712740431
1.1715253124
1.1720277274
1.1727787527
1.1737738042
1.1750055206
1.1764630264
1.1781318910
1.1799938765
1.1820268907
1.1842056632
1.1865021373
1.1888861592
1.1913265362
1.1937924996
1.1962537625
1.1986819511
1.2010510029
1.2033377407
1.2055223082
1.2075880000
1.2095213332
1.2113118126
1.2129513730
1.2144342389
1.2157564379
1.2169152491
1.2179091512
1.2187373512
1.2193994221
1.2198954183
1.2202254837
1.2203896816
1.2208898207
1.1974282214
1.1979223875
1.1980424624
1.1982784573
1.1986212773
1.1990579798
1.1995724174
1.2001459947
1.2007587616
1.2013903018
1.2020206871
1.2026314412
1.2032061999
1.2037314035
1.2041967169
1.2045951438
1.2049231078
1.2051800614
1.2053678176
1.2054897362
1.2055494083
1.2058274123
1.1727583936
1.1728401584
1.1730808257
1.1735628428
1.1742851926
1.1752449336
1.1764362446
1.1778495872
1.1794716109
1.1812849196
1.1832680697
1.1853962721
1.1876418327
1.1899749054
1.1923644977
1.1947800610
1.1971915703
1.1995709306
1.2018924055
1.2041331268
1.2062735745
1.2082973909
1.2101914167
1.2119454481
1.2135516691
1.2150044884
1.2163000573
1.2174357253
1.2184099777
1.2192219911
1.2198712886
1.2203578481
1.2206817450
1.2208429962
1.2213797750
1.1966386612
1.1972628680
1.1973768738
1.1976007943
1.1979254536
1.1983378147
1.1988216539
1.1993583464
1.1999280091
1.2005104275
1.2010860497
1.2016369866
1.2021477269
1.2026058871
1.2030026782
1.2033331031
1.2035961028
1.2037941655
1.2039326018
1.2040185167
1.2040589745
1.2042653668
1.1744187704
1.1744299648
1.1746577060
1.1751153833
1.1758042849
1.1767237724
1.1778700170
1.1792350741
1.1808067785
1.1825685818
1.1844996415
1.1865755703
1.1887689451
1.1910501166
1.1933882782
1.1957529753
1.1981142283
1.2004443826
1.2027178849
1.2049121542
1.2070079954
1.2089893863
1.2108434942
1.2125604144
1.2141325962
1.2155546523
1.2168228798
1.2179347218
1.2188886918
1.2196839567
1.2203200083
1.2207967629
1.2211142384
1.2212724135
1.2218398189
1.1957440992
1.1965017336
1.1966096977
1.1968216252
1.1971282494
1.1975164182
1.1979697971
1.1984696737
1.1989961490
1.1995290893
1.2000491569
1.2005388489
1.2009832678
1.2013709733
1.2016945116
1.2019507589
1.2021412622
1.2022719396
1.2023524245
1.2023948694
1.2024115247
1.2025459980
1.1760987093
1.1760352912
1.1762465560
1.1766741810
1.1773230874
1.1781959243
1.1792914385
1.1806035359
1.1821212766
1.1838288844
1.1857059875
1.1877284599
1.1898690050
1.1920980383
1.1943849729
1.1966988069
1.1990101712
1.2012914463
1.2035172588
1.2056652850
1.2077166266
1.2096555873
1.2114696532
1.2131492257
1.2146870343
1.2160779161
1.2173183398
1.2184058701
1.2193390764
1.2201171423
1.2207395537
1.2212061854
1.2215170146
1.2216719931
1.2222634678
1.1947497807
1.1956420366
1.1957440348
1.1959441586
1.1962330410
1.1965973963
1.1970207417
1.1974842190
1.1979678104
1.1984513227
1.1989154257
1.1993427428
1.1997186619
1.2000322811
1.2002771385
1.2004517037
1.2005600321
1.2006117969
1.2006219420
1.2006095856
1.2005950250
1.2006582133
1.1777945885
1.1776541491
1.1778431675
1.1782320650
1.1788316562
1.1796493106
1.1806870381
1.1819407678
1.1834006785
1.1850515347
1.1868731834
1.1888415280
1.1909292072
1.1931065242
1.1953427993
1.1976068138
1.1998692837
1.2021026406
1.2042816567
1.2063842192
1.2083917055
1.2102887200
1.2120630623
1.2137054421
1.2152088822
1.2165684649
1.2177808572
1.2188437775
1.2197558836
1.2205164086
1.2211248622
1.2215811035
1.2218850895
1.2220367603
1.2226455423
1.1936660965
1.1946918058
1.1947879491
1.1949765412
1.1952481097
1.1955892172
1.1959832051
1.1964110016
1.1968523641
1.1972868833
1.1976949836
1.1980590913
1.1983644616
1.1986002024
1.1987602168
1.1988440303
1.1988577670
1.1988148635
1.1987366112
1.1986517338
1.1985933352
1.1985868140
1.1795106541
1.1792925352
1.1794493728
1.1797858804
1.1803225788
1.1810735264
1.1820446438
1.1832337917
1.1846318566
1.1862236592
1.1879888221
1.1899029403
1.1919383338
1.1940649910
1.1962519371
1.1984676942
1.2006828465
1.2028698180
1.2050034481
1.2070618285
1.2090265678
1.2108825526
1.2126178817
1.2142235752
1.2156929606
1.2170213850
1.2182057407
1.2192439333
1.2201347456
1.2208774958
1.2214717528
1.2219173894
1.2222143666
1.2223626296
1.2229820841
1.1925090696
1.1936646316
1.1937550539
1.1939324474
1.1941872312
1.1945058117
1.1948713292
1.1952644303
1.1956645506
1.1960508674
1.1964032835
1.1967035952
1.1969364625
1.1970904992
1.1971591312
1.1971417563
1.1970453887
1.1968865770
1.1966935033
1.1965077072
1.1963828696
1.1963090916
1.1812619968
1.1809672968
1.1810738909
1.1813358832
1.1817897123
1.1824584700
1.1833521804
1.1844699037
1.1858022717
1.1873332766
1.1890416381
1.1909021569
1.1928865168
1.1949642093
1.1971037645
1.1992733856
1.2014433354
1.2035858910
1.2056760047
1.2076918930
1.2096153928
1.2114316309
1.2131289964
1.2146988208
1.2161347447
1.2174323978
1.2185889244
1.2196024505
1.2204719203
1.2211967768
1.2217766845
1.2222115624
1.2225014015
1.2226461716
1.2232700948
1.1913001504
1.1925796048
1.1926644512
1.1928310152
1.1930696161
1.1933665086
1.1937046076
1.1940642384
1.1944244208
1.1947636418
1.1950609897
1.1952969349
1.1954551653
1.1955235325
1.1954941601
1.1953646285
1.1951406374
1.1948387467
1.1944924245
1.1941593083
1.1939253948
1.1937874996
1.1830804032
1.1827118656
1.1827335623
1.1828844777
1.1832261428
1.1837924580
1.1845962640
1.1856357548
1.1868994203
1.1883690067
1.1900213667
1.1918298811
1.1937652537
1.1957963023
1.1978909849
1.2000170554
1.2021443466
1.2042448427
1.2062936052
1.2082690472
1.2101531231
1.2119311915
1.2135919261
1.2151269658
1.2165302702
1.2177977669
1.2189268765
1.2199159763
1.2207642085
1.2214711780
1.2220366822
1.2224607191
1.2227433375
1.2228845509
1.2235074293
1.1900658643
1.1914611057
1.1915405255
1.1916966576
1.1919197379
1.1921958733
1.1925077689
1.1928354364
1.1931572490
1.1934508686
1.1936938565
1.1938669657
1.1939527642
1.1939356498
1.1938035957
1.1935496149
1.1931746329
1.1926926934
1.1921384488
1.1915817430
1.1911540211
1.1909553477
1.1850252603
1.1845870114
1.1844536911
1.1844323064
1.1846197029
1.1850586053
1.1857596896
1.1867157320
1.1879098285
1.1893194237
1.1909182899
1.1926777288
1.1945671343
1.1965545826
1.1986073919
1.2006930330
1.2027803522
1.2048413990
1.2068513400
1.2087886177
1.2106353149
1.2123770127
1.2140026709
1.2155042318
1.2168759758
1.2181141399
1.2192164410
1.2201815356
1.2210087960
1.2216980236
1.2222491832
1.2226623835
1.2229377567
1.2230753786
1.2236925998
1.1888371203
1.1903382379
1.1904123889
1.1905585143
1.1907667843
1.1910232082
1.1913103381
1.1916077393
1.1918931133
1.1921432416
1.1923370123
1.1924532505
1.1924711274
1.1923711109
1.1921354147
1.1917489327
1.1912017638
1.1904943151
1.1896499218
1.1887419162
1.1879441063
1.1876867379
1.1872059250
1.1867029808
1.1862654839
1.1859691888
1.1859448193
1.1862293388
1.1868182491
1.1876902908
1.1888182234
1.1901726155
1.1917229624
1.1934379821
1.1952856128
1.1972332234
1.1992477109
1.2012960567
1.2033465223
1.2053710553
1.2073448509
1.2092463792
1.2110578981
1.2127652025
1.2143575186
1.2158270951
1.2171685409
1.2183783930
1.2194546857
1.2203963809
1.2212031070
1.2218748913
1.2224118951
1.2228143652
1.2230825400
1.2232165735
1.2238245724
1.1876477393
1.1892434687
1.1893125182
1.1894490884
1.1896433353
1.1898812232
1.1901451496
1.1904143592
1.1906660870
1.1908788127
1.1910297588
1.1910955530
1.1910527217
1.1908773581
1.1905445858
1.1900275559
1.1892971523
1.1883237601
1.1870870188
1.1856088313
1.1840460011
1.1837316178
1.1898299640
1.1892673104
1.1881938192
1.1874542157
1.1871486645
1.1872591668
1.1877377851
1.1885351999
1.1896076663
1.1909165728
1.1924265559
1.1941038289
1.1959151095
1.1978273952
1.1998075032
1.2018220302
1.2038389305
1.2058300965
1.2077703664
1.2096386066
1.2114172196
1.2130922213
1.2146530820
1.2160923392
1.2174049119
1.2185876724
1.2196389658
1.2205580700
1.2213448919
1.2219997065
1.2225228941
1.2229148620
1.2231759728
1.2233064716
1.2239028052
1.1865330022
1.1882112381
1.1882753740
1.1884028873
1.1885839595
1.1888045860
1.1890471797
1.1892907032
1.1895141828
1.1896952768
1.1898100799
1.1898341564
1.1897421332
1.1895065066
1.1890954783
1.1884686699
1.1875701593
1.1863171683
1.1845847737
1.1821962344
1.1789643451
1.1785899560
1.1933075239
1.1926883195
1.1902120271
1.1887703069
1.1881268180
1.1880752041
1.1884719614
1.1892220064
1.1902606408
1.1915401249
1.1930214808
1.1946696622
1.1964511129
1.1983331342
1.2002830781
1.2022675518
1.2042542366
1.2062147605
1.2081244560
1.2099620659
1.2117100698
1.2133548878
1.2148862440
1.2162969461
1.2175822248
1.2187392726
1.2197667622
1.2206642867
1.2214320365
1.2220705467
1.2225804310
1.2229622716
1.2232165681
1.2233436638
1.2239270327
1.1855280093
1.1872763167
1.1873357557
1.1874547434
1.1876235627
1.1878283534
1.1880515711
1.1882734759
1.1884732300
1.1886281191
1.1887143375
1.1887075651
1.1885823580
1.1883103200
1.1878567550
1.1871729974
1.1861797811
1.1847289773
1.1825108051
1.1788203095
1.1719568887
1.1715202374
1.1984799520
1.1978018371
1.1920985843
1.1896250535
1.1886855831
1.1885698350
1.1889651000
1.1897225683
1.1907626765
1.1920353105
1.1935027586
1.1951318053
1.1968904528
1.1987474412
1.2006714659
1.2026294948
1.2045894298
1.2065223208
1.2084037533
1.2102130013
1.2119328741
1.2135498299
1.2150538389
1.2164379764
1.2176977725
1.2188307334
1.2198358489
1.2207130286
1.2214627497
1.2220858114
1.2225830654
1.2229552768
1.2232030895
1.2233269526
1.2238971253
1.1846656773
1.1864717328
1.1865267282
1.1866377645
1.1867952797
1.1869856867
1.1871920507
1.1873955583
1.1875752669
1.1877091009
1.1877743222
1.1877483094
1.1876084156
1.1873312168
1.1868921606
1.1862649619
1.1854225382
1.1843447907
1.1830472567
1.1816752607
1.1808577656
1.1856792857
1.1823080344
1.1744536343
1.1805830755
1.1873399810
1.1879186945
1.1879893589
1.1881371940
1.1885140089
1.1891435683
1.1900147970
1.1911079408
1.1924007946
1.1938697969
1.1954893342
1.1972317213
1.1990684471
1.2009703889
1.2029056266
1.2048412773
1.2067490393
1.2086050729
1.2103886672
1.2120828452
1.2136742851
1.2151531901
1.2165128861
1.2177491854
1.2188598880
1.2198442840
1.2207025851
1.2214355454
1.2220442212
1.2225296974
1.2228929208
1.2231346803
1.2232555310
1.2238132388
1.1839751770
1.1858270960
1.1858779343
1.1859816084
1.1861287622
1.1863061653
1.1864978556
1.1866851641
1.1868476919
1.1869644726
1.1870142917
1.1869767072
1.1868323347
1.1865627974
1.1861518716
1.1855871894
1.1848643347
1.1839979776
1.1830466739
1.1821691740
1.1817844429
1.1834008254
1.1820944278
1.1742545509
1.1795701238
1.1841598477
1.1859016172
1.1868814574
1.1876176031
1.1883501273
1.1891872126
1.1901754413
1.1913307334
1.1926523453
1.1941297039
1.1957450269
1.1974753968
1.1992953405
1.2011781404
1.2030934171
1.2050071677
1.2068925253
1.2087256644
1.2104861064
1.2121570771
1.2137254528
1.2151816455
1.2165192103
1.2177342152
1.2188247250
1.2197903032
1.2206314379
1.2213491404
1.2219447066
1.2224194401
1.2227744606
1.2230106948
1.2231287996
1.2236755795
1.1834806179
1.1853671285
1.1854141239
1.1855110176
1.1856486848
1.1858143878
1.1859927227
1.1861653608
1.1863127590
1.1864151815
1.1864529721
1.1864077914
1.1862632303
1.1860050760
1.1856230935
1.1851132398
1.1844814341
1.1837521423
1.1829826629
1.1822865660
1.1818782761
1.1821459727
1.1812676529
1.1784756842
1.1808096833
1.1834324941
1.1850712509
1.1862713543
1.1872610560
1.1881960963
1.1891735613
1.1902506873
1.1914572731
1.1928042747
1.1942898319
1.1959021724
1.1976223606
1.1994275954
1.2012934732
1.2031904855
1.2050848351
1.2069501215
1.2087627901
1.2105025764
1.2121528863
1.2137007599
1.2151367894
1.2164547280
1.2176508608
1.2187234809
1.2196723876
1.2204983111
1.2212024889
1.2217864304
1.2222516337
1.2225993750
1.2228307056
1.2229463744
1.2234843735
1.1831999916
1.1851104125
1.1851539089
1.1852445810
1.1853735510
1.1855284971
1.1856943906
1.1858534742
1.1859870708
1.1860765510
1.1861035886
1.1860515953
1.1859065096
1.1856571563
1.1852972527
1.1848275422
1.1842586411
1.1836171976
1.1829535209
1.1823491605
1.1819204883
1.1817704988
1.1812640638
1.1803637052
1.1816177714
1.1833066911
1.1847285262
1.1859465330
1.1870323188
1.1880694388
1.1891285469
1.1902617927
1.1915020203
1.1928653331
1.1943548323
1.1959626749
1.1976727559
1.1994642458
1.2013145391
1.2031949943
1.2050719269
1.2069193715
1.2087139898
1.2104356846
1.2120679933
1.2135980857
1.2150166955
1.2163177308
1.2174976490
1.2185549269
1.2194895559
1.2203024638
1.2209950763
1.2215690799
1.2220261367
1.2223676547
1.2225947924
1.2227083764
1.2232401264
1.1831447117
1.1850687811
1.1851091458
1.1851941574
1.1853151610
1.1854601196
1.1856143331
1.1857606560
1.1858811630
1.1859580436
1.1859739568
1.1859135622
1.1857643930
1.1855172248
1.1851681520
1.1847205431
1.1841871445
1.1835946887
1.1829879802
1.1824308472
1.1819992466
1.1817379136
1.1814504398
1.1812474819
1.1820961756
1.1833445721
1.1845942363
1.1857729174
1.1868809388
1.1879584359
1.1890549304
1.1902149612
1.1914703983
1.1928390251
1.1943263452
1.1959267103
1.1976257118
1.1994037386
1.2012392939
1.2031045352
1.2049660515
1.2067979431
1.2085770307
1.2102833240
1.2119004521
1.2134156710
1.2148198106
1.2161068842
1.2172734758
1.2183181935
1.2192411718
1.2200434841
1.2207266977
1.2212926349
1.2217430825
1.2220795530
1.2223032882
1.2224151762
1.2229433553
1.1833193814
1.1852469725
1.1852846169
1.1853645571
1.1854783533
1.1856142479
1.1857578484
1.1858924341
1.1860005831
1.1860650534
1.1860690821
1.1859979900
1.1858400894
1.1855870473
1.1852359958
1.1847913951
1.1842667721
1.1836885990
1.1830988497
1.1825536508
1.1821149475
1.1818204282
1.1816163434
1.1816279420
1.1823208792
1.1833776250
1.1845261759
1.1856626367
1.1867608567
1.1878414805
1.1889431178
1.1901055455
1.1913592923
1.1927223678
1.1942010988
1.1957907153
1.1974775335
1.1992424785
1.2010645676
1.2029165290
1.2047649069
1.2065837571