<VTKFile type="UnstructuredGrid" version="0.1">
	<UnstructuredGrid>
		<Piece NumberOfPoints="13548" NumberOfCells="3387">
			<CellData>
				<DataArray type="Int32" Name="ghost" NumberOfComponents="1" Format="ascii">
1
1
1
1
1
1
1
1
1
1
1
1
1
1
1
1
1
1
1
1
1
1
1
1
1
1
1
1
1
1
1
1
1
1
1
1
1
1
1
1
1
1
1
1
1
1
1
1
1
1
1
1
1
1
1
1
1
1
0
0
0
0
0
0
0
0
0
0
0
0
0
0
0
0
0
0
0
0
1
1
0
0
0
0
0
0
0
0
0
0
0
0
0
0
0
0
0
0
0
0
0
0
0
0
0
0
0
0
0
0
0
0
0
1
1
0
0
0
0
0
0
0
0
0
0
0
0
0
0
0
0
0
0
0
0
1
1
0
0
0
0
0
0
0
0
0
0
0
0
0
0
0
0
0
0
0
0
0
0
0
0
0
0
0
0
0
0
0
0
0
1
1
0
0
0
0
0
0
0
0
0
0
0
0
0
0
0
0
0
0
0
0
1
1
0
0
0
0
0
0
0
0
0
0
0
0
0
0
0
0
0
0
0
0
0
0
0
0
0
0
0
0
0
0
0
0
0
1
1
0
0
0
0
0
0
0
0
0
0
0
0
0
0
0
0
0
0
0
0
1
1
0
0
0
0
0
0
0
0
0
0
0
0
0
0
0
0
0
0
0
0
0
0
0
0
0
0
0
0
0
0
0
0
0
1
1
0
0
0
0
0
0
0
0
0
0
0
0
0
0
0
0
0
0
0
0
1
1
0
0
0
0
0
0
0
0
0
0
0
0
0
0
0
0
0
0
0
0
0
0
0
0
0
0
0
0
0
0
0
0
0
1
1
0
0
0
0
0
0
0
0
0
0
0
0
0
0
0
0
0
0
0
0
1
1
0
0
0
0
0
0
0
0
0
0
0
0
0
0
0
0
0
0
0
0
0
0
0
0
0
0
0
0
0
0
0
0
0
1
1
0
0
0
0
0
0
0
0
0
0
0
0
0
0
0
0
0
0
0
0
1
1
0
0
0
0
0
0
0
0
0
0
0
0
0
0
0
0
0
0
0
0
0
0
0
0
0
0
0
0
0
0
0
0
0
1
1
0
0
0
0
0
0
0
0
0
0
0
0
0
0
0
0
0
0
0
0
1
1
0
0
0
0
0
0
0
0
0
0
0
0
0
0
0
0
0
0
0
0
0
0
0
0
0
0
0
0
0
0
0
0
0
1
1
0
0
0
0
0
0
0
0
0
0
0
0
0
0
0
0
0
0
0
0
1
1
0
0
0
0
0
0
0
0
0
0
0
0
0
0
0
0
0
0
0
0
0
0
0
0
0
0
0
0
0
0
0
0
0
1
1
0
0
0
0
0
0
0
0
0
0
0
0
0
0
0
0
0
0
0
0
1
1
0
0
0
0
0
0
0
0
0
0
0
0
0
0
0
0
0
0
0
0
0
0
0
0
0
0
0
0
0
0
0
0
0
1
1
0
0
0
0
0
0
0
0
0
0
0
0
0
0
0
0
0
0
0
0
1
1
0
0
0
0
0
0
0
0
0
0
0
0
0
0
0
0
0
0
0
0
0
0
0
0
0
0
0
0
0
0
0
0
0
1
1
0
0
0
0
0
0
0
0
0
0
0
0
0
0
0
0
0
0
0
0
1
1
0
0
0
0
0
0
0
0
0
0
0
0
0
0
0
0
0
0
0
0
0
0
0
0
0
0
0
0
0
0
0
0
0
1
1
0
0
0
0
0
0
0
0
0
0
0
0
0
0
0
0
0
0
0
0
1
1
0
0
0
0
0
0
0
0
0
0
0
0
0
0
0
0
0
0
0
0
0
0
0
0
0
0
0
0
0
0
0
0
0
1
1
0
0
0
0
0
0
0
0
0
0
0
0
0
0
0
0
0
0
0
0
1
1
0
0
0
0
0
0
0
0
0
0
0
0
0
0
0
0
0
0
0
0
0
0
0
0
0
0
0
0
0
0
0
0
0
1
1
0
0
0
0
0
0
0
0
0
0
0
0
0
0
0
0
0
0
0
0
1
1
0
0
0
0
0
0
0
0
0
0
0
0
0
0
0
0
0
0
0
0
0
0
0
0
0
0
0
0
0
0
0
0
0
1
1
0
0
0
0
0
0
0
0
0
0
0
0
0
0
0
0
0
0
0
0
1
1
0
0
0
0
0
0
0
0
0
0
0
0
0
0
0
0
0
0
0
0
0
0
0
0
0
0
0
0
0
0
0
0
0
1
1
0
0
0
0
0
0
0
0
0
0
0
0
0
0
0
0
0
0
0
0
1
1
0
0
0
0
0
0
0
0
0
0
0
0
0
0
0
0
0
0
0
0
0
0
0
0
0
0
0
0
0
0
0
0
0
1
1
0
0
0
0
0
0
0
0
0
0
0
0
0
0
0
0
0
0
0
0
1
1
0
0
0
0
0
0
0
0
0
0
0
0
0
0
0
0
0
0
0
0
0
0
0
0
0
0
0
0
0
0
0
0
0
1
1
0
0
0
0
0
0
0
0
0
0
0
0
0
0
0
0
0
0
0
0
1
1
0
0
0
0
0
0
0
0
0
0
0
0
0
0
0
0
0
0
0
0
0
0
0
0
0
0
0
0
0
0
0
0
0
1
1
0
0
0
0
0
0
0
0
0
0
0
0
0
0
0
0
0
0
0
0
1
1
0
0
0
0
0
0
0
0
0
0
0
0
0
0
0
0
0
0
0
0
0
0
0
0
0
0
0
0
0
0
0
0
0
1
1
0
0
0
0
0
0
0
0
0
0
0
0
0
0
0
0
0
0
0
0
1
1
0
0
0
0
0
0
0
0
0
0
0
0
0
0
0
0
0
0
0
0
0
0
0
0
0
0
0
0
0
0
0
0
0
1
1
0
0
0
0
0
0
0
0
0
0
0
0
0
0
0
0
0
0
0
0
1
1
0
0
0
0
0
0
0
0
0
0
0
0
0
0
0
0
0
0
0
0
0
0
0
0
0
0
0
0
0
0
0
0
0
1
1
0
0
0
0
0
0
0
0
0
0
0
0
0
0
0
0
0
0
0
0
1
1
0
0
0
0
0
0
0
0
0
0
0
0
0
0
0
0
0
0
0
0
0
0
0
0
0
0
0
0
0
0
0
0
0
1
1
0
0
0
0
0
0
0
0
0
0
0
0
0
0
0
0
0
0
0
0
1
1
0
0
0
0
0
0
0
0
0
0
0
0
0
0
0
0
0
0
0
0
0
0
0
0
0
0
0
0
0
0
0
0
0
1
1
0
0
0
0
0
0
0
0
0
0
0
0
0
0
0
0
0
0
0
0
0
1
1
0
0
0
0
0
0
0
0
0
0
0
0
0
0
0
0
0
0
0
0
0
0
0
0
0
0
0
0
0
0
0
0
0
0
1
1
0
0
0
0
0
0
0
0
0
0
0
0
0
0
0
0
0
0
0
0
0
0
0
0
0
0
0
0
0
0
0
0
0
0
0
0
0
0
0
0
0
0
0
0
0
0
0
0
0
0
0
0
0
0
0
0
0
1
1
0
0
0
0
0
0
0
0
0
0
0
0
0
0
0
0
0
0
0
0
0
0
0
0
0
0
0
0
0
0
0
0
0
0
0
0
0
0
0
0
0
0
0
0
0
0
0
0
0
0
0
0
0
0
0
0
0
1
1
0
0
0
0
0
0
0
0
0
0
0
0
0
0
0
0
0
0
0
0
0
0
0
0
0
0
0
0
0
0
0
0
0
0
0
0
0
0
0
0
0
0
0
0
0
0
0
0
0
0
0
0
0
0
0
0
0
1
1
0
0
0
0
0
0
0
0
0
0
0
0
0
0
0
0
0
0
0
0
0
0
0
0
0
0
0
0
0
0
0
0
0
0
0
0
0
0
0
0
0
0
0
0
0
0
0
0
0
0
0
0
0
0
0
0
0
1
1
0
0
0
0
0
0
0
0
0
0
0
0
0
0
0
0
0
0
0
0
0
0
0
0
0
0
0
0
0
0
0
0
0
0
0
0
0
0
0
0
0
0
0
0
0
0
0
0
0
0
0
0
0
0
0
0
0
1
1
0
0
0
0
0
0
0
0
0
0
0
0
0
0
0
0
0
0
0
0
0
0
0
0
0
0
0
0
0
0
0
0
0
0
0
0
0
0
0
0
0
0
0
0
0
0
0
0
0
0
0
0
0
0
0
0
0
1
1
0
0
0
0
0
0
0
0
0
0
0
0
0
0
0
0
0
0
0
0
0
0
0
0
0
0
0
0
0
0
0
0
0
0
0
0
0
0
0
0
0
0
0
0
0
0
0
0
0
0
0
0
0
0
0
0
0
1
1
0
0
0
0
0
0
0
0
0
0
0
0
0
0
0
0
0
0
0
0
0
0
0
0
0
0
0
0
0
0
0
0
0
0
0
0
0
0
0
0
0
0
0
0
0
0
0
0
0
0
0
0
0
0
0
0
0
1
1
0
0
0
0
0
0
0
0
0
0
0
0
0
0
0
0
0
0
0
0
0
0
0
0
0
0
0
0
0
0
0
0
0
0
0
0
0
0
0
0
0
0
0
0
0
0
0
0
0
0
0
0
0
0
0
0
0
1
1
0
0
0
0
0
0
0
0
0
0
0
0
0
0
0
0
0
0
0
0
0
0
0
0
0
0
0
0
0
0
0
0
0
0
0
0
0
0
0
0
0
0
0
0
0
0
0
0
0
0
0
0
0
0
0
0
0
1
1
0
0
0
0
0
0
0
0
0
0
0
0
0
0
0
0
0
0
0
0
0
1
1
0
0
0
0
0
0
0
0
0
0
0
0
0
0
0
0
0
0
0
0
0
0
0
0
0
0
0
0
0
0
0
0
0
0
1
1
0
0
0
0
0
0
0
0
0
0
0
0
0
0
0
0
0
0
0
0
1
1
0
0
0
0
0
0
0
0
0
0
0
0
0
0
0
0
0
0
0
0
0
0
0
0
0
0
0
0
0
0
0
0
0
1
1
0
0
0
0
0
0
0
0
0
0
0
0
0
0
0
0
0
0
0
0
1
1
0
0
0
0
0
0
0
0
0
0
0
0
0
0
0
0
0
0
0
0
0
0
0
0
0
0
0
0
0
0
0
0
0
1
1
0
0
0
0
0
0
0
0
0
0
0
0
0
0
0
0
0
0
0
0
1
1
0
0
0
0
0
0
0
0
0
0
0
0
0
0
0
0
0
0
0
0
0
0
0
0
0
0
0
0
0
0
0
0
0
1
1
0
0
0
0
0
0
0
0
0
0
0
0
0
0
0
0
0
0
0
0
1
1
0
0
0
0
0
0
0
0
0
0
0
0
0
0
0
0
0
0
0
0
0
0
0
0
0
0
0
0
0
0
0
0
0
1
1
0
0
0
0
0
0
0
0
0
0
0
0
0
0
0
0
0
0
0
0
1
1
0
0
0
0
0
0
0
0
0
0
0
0
0
0
0
0
0
0
0
0
0
0
0
0
0
0
0
0
0
0
0
0
0
1
1
0
0
0
0
0
0
0
0
0
0
0
0
0
0
0
0
0
0
0
0
1
1
0
0
0
0
0
0
0
0
0
0
0
0
0
0
0
0
0
0
0
0
0
0
0
0
0
0
0
0
0
0
0
0
0
1
1
0
0
0
0
0
0
0
0
0
0
0
0
0
0
0
0
0
0
0
0
1
1
0
0
0
0
0
0
0
0
0
0
0
0
0
0
0
0
0
0
0
0
0
0
0
0
0
0
0
0
0
0
0
0
0
1
1
0
0
0
0
0
0
0
0
0
0
0
0
0
0
0
0
0
0
0
0
1
1
0
0
0
0
0
0
0
0
0
0
0
0
0
0
0
0
0
0
0
0
0
0
0
0
0
0
0
0
0
0
0
0
0
1
1
0
0
0
0
0
0
0
0
0
0
0
0
0
0
0
0
0
0
0
0
1
1
0
0
0
0
0
0
0
0
0
0
0
0
0
0
0
0
0
0
0
0
0
0
0
0
0
0
0
0
0
0
0
0
0
1
1
0
0
0
0
0
0
0
0
0
0
0
0
0
0
0
0
0
0
0
0
1
1
0
0
0
0
0
0
0
0
0
0
0
0
0
0
0
0
0
0
0
0
0
0
0
0
0
0
0
0
0
0
0
0
0
1
1
0
0
0
0
0
0
0
0
0
0
0
0
0
0
0
0
0
0
0
0
1
1
0
0
0
0
0
0
0
0
0
0
0
0
0
0
0
0
0
0
0
0
0
0
0
0
0
0
0
0
0
0
0
0
0
1
1
0
0
0
0
0
0
0
0
0
0
0
0
0
0
0
0
0
0
0
0
1
1
0
0
0
0
0
0
0
0
0
0
0
0
0
0
0
0
0
0
0
0
0
0
0
0
0
0
0
0
0
0
0
0
0
1
1
0
0
0
0
0
0
0
0
0
0
0
0
0
0
0
0
0
0
0
0
1
1
0
0
0
0
0
0
0
0
0
0
0
0
0
0
0
0
0
0
0
0
0
0
0
0
0
0
0
0
0
0
0
0
0
1
1
0
0
0
0
0
0
0
0
0
0
0
0
0
0
0
0
0
0
0
0
1
1
0
0
0
0
0
0
0
0
0
0
0
0
0
0
0
0
0
0
0
0
0
0
0
0
0
0
0
0
0
0
0
0
0
1
1
0
0
0
0
0
0
0
0
0
0
0
0
0
0
0
0
0
0
0
0
1
1
0
0
0
0
0
0
0
0
0
0
0
0
0
0
0
0
0
0
0
0
0
0
0
0
0
0
0
0
0
0
0
0
0
1
1
0
0
0
0
0
0
0
0
0
0
0
0
0
0
0
0
0
0
0
0
1
1
0
0
0
0
0
0
0
0
0
0
0
0
0
0
0
0
0
0
0
0
0
0
0
0
0
0
0
0
0
0
0
0
0
1
1
0
0
0
0
0
0
0
0
0
0
0
0
0
0
0
0
0
0
0
0
1
1
0
0
0
0
0
0
0
0
0
0
0
0
0
0
0
0
0
0
0
0
0
0
0
0
0
0
0
0
0
0
0
0
0
1
1
0
0
0
0
0
0
0
0
0
0
0
0
0
0
0
0
0
0
0
0
1
1
0
0
0
0
0
0
0
0
0
0
0
0
0
0
0
0
0
0
0
0
0
0
0
0
0
0
0
0
0
0
0
0
0
1
1
0
0
0
0
0
0
0
0
0
0
0
0
0
0
0
0
0
0
0
0
1
1
0
0
0
0
0
0
0
0
0
0
0
0
0
0
0
0
0
0
0
0
0
0
0
0
0
0
0
0
0
0
0
0
0
1
1
0
0
0
0
0
0
0
0
0
0
0
0
0
0
0
0
0
0
0
0
1
1
0
0
0
0
0
0
0
0
0
0
0
0
0
0
0
0
0
0
0
0
0
0
0
0
0
0
0
0
0
0
0
0
0
1
1
0
0
0
0
0
0
0
0
0
0
0
0
0
0
0
0
0
0
0
0
1
1
0
0
0
0
0
0
0
0
0
0
0
0
0
0
0
0
0
0
0
0
0
0
0
0
0
0
0
0
0
0
0
0
0
1
1
1
1
1
1
1
1
1
1
1
1
1
1
1
1
1
1
1
1
1
1
1
1
1
1
1
1
1
1
1
1
1
1
1
1
1
1
1
1
1
1
1
1
1
1
1
1
1
1
1
1
1
1
1
1
1
1
				</DataArray>
				<DataArray type="Float64" Name="h" NumberOfComponents="1" Format="ascii">
1.1279506274
1.1281679602
1.1282980665
1.1285548317
1.1289308419
1.1294154141
1.1299949466
1.1306533286
1.1313726460
1.1321337038
1.1329166239
1.1337015455
1.1344690775
1.1352008347
1.1358798793
1.1364909241
1.1370206777
1.1374579549
1.1377936963
1.1380211678
1.1381358743
1.1381358743
1.2405060569
1.2419988832
1.2418154917
1.2414656861
1.2409508597
1.2402736765
1.2394385783
1.2384517420
1.2373225787
1.2360645235
1.2346950597
1.2332365514
1.2317160535
1.2301640790
1.2286135034
1.2270977820
1.2256487489
1.2242948382
1.2230594320
1.2219596775
1.2210058249
1.2202011832
1.2195428341
1.2190222588
1.2186264423
1.2183395551
1.2181437760
1.2180204238
1.2179515744
1.2179203579
1.2179116256
1.2179131794
1.2179155030
1.2179120049
1.2179120049
1.1281679602
1.1284359371
1.1285607124
1.1288069003
1.1291671777
1.1296310192
1.1301850724
1.1308135878
1.1314991498
1.1322232141
1.1329667033
1.1337106953
1.1344368530
1.1351279211
1.1357681165
1.1363432978
1.1368412577
1.1372517904
1.1375666740
1.1377798404
1.1378872556
1.1381358743
1.2419988832
1.2434818462
1.2432913726
1.2429273245
1.2423915062
1.2416870576
1.2408188345
1.2397932425
1.2386196176
1.2373109639
1.2358839971
1.2343600597
1.2327650975
1.2311286399
1.2294829083
1.2278612179
1.2262958873
1.2248164797
1.2234481033
1.2222100918
1.2211151749
1.2201692685
1.2193720144
1.2187172813
1.2181941926
1.2177887502
1.2174846493
1.2172644339
1.2171111353
1.2170086108
1.2169422574
1.2169002706
1.2168734087
1.2168552616
1.2179120049
1.1283890547
1.1286614749
1.1287863200
1.1290326419
1.1293930969
1.1298571326
1.1304113663
1.1310400186
1.1317256481
1.1324496921
1.1331930633
1.1339368392
1.1346626978
1.1353534015
1.1359931878
1.1365679390
1.1370654770
1.1374756257
1.1377901902
1.1380031269
1.1381104202
1.1383536869
1.2421041903
1.2435630512
1.2433692255
1.2429985245
1.2424529723
1.2417360266
1.2408529421
1.2398105832
1.2386187776
1.2372910280
1.2358445300
1.2343010566
1.2326869156
1.2310319416
1.2293686186
1.2277304445
1.2261498505
1.2246564468
1.2232753353
1.2220258026
1.2209205042
1.2199652691
1.2191596501
1.2184974322
1.2179676678
1.2175563015
1.2172469857
1.2170222364
1.2168650672
1.2167593272
1.2166904119
1.2166465173
1.2166184038
1.2165996636
1.2176596283
1.1288290680
1.1291104674
1.1292354819
1.1294821303
1.1298430260
1.1303075602
1.1308622867
1.1314913620
1.1321772892
1.1329014636
1.1336447729
1.1343882886
1.1351137147
1.1358038362
1.1364429334
1.1370169382
1.1375137295
1.1379231881
1.1382371741
1.1384496917
1.1385567601
1.1387893114
1.2423058471
1.2437171252
1.2435168571
1.2431333550
1.2425690530
1.2418280039
1.2409162131
1.2398414141
1.2386143705
1.2372495436
1.2357650613
1.2341835530
1.2325320761
1.2308411005
1.2291436410
1.2274735510
1.2258634716
1.2243430906
1.2229374816
1.2216658236
1.2205406131
1.2195674978
1.2187458474
1.2180692786
1.2175267025
1.2171039520
1.2167845987
1.2165511079
1.2163864638
1.2162745046
1.2162006279
1.2161530355
1.2161224956
1.2161026075
1.2171693408
1.1294841865
1.1297791624
1.1299044924
1.1301517518
1.1305134869
1.1309789999
1.1315347437
1.1321647718
1.1328514956
1.1335762377
1.1343198375
1.1350633459
1.1357885018
1.1364781035
1.1371164878
1.1376896590
1.1381855713
1.1385941869
1.1389074460
1.1391194268
1.1392262035
1.1394426649
1.2425911997
1.2439323545
1.2437228711
1.2433210363
1.2427298612
1.2419542389
1.2410012388
1.2398798305
1.2386021157
1.2371839322
1.2356447571
1.2340084695
1.2323032293
1.2305604307
1.2288138713
1.2270979207
1.2254455205
1.2238864644
1.2224457757
1.2211424674
1.2199887953
1.2189901355
1.2181455851
1.2174485124
1.2168876216
1.2164485837
1.2161148557
1.2158688326
1.2156934612
1.2155725683
1.2154915599
1.2154386502
1.2154046225
1.2153830882
1.2164602105
1.1303486635
1.1306619001
1.1307877599
1.1310360502
1.1313992229
1.1318664543
1.1324240532
1.1330559241
1.1337443414
1.1344705136
1.1352151955
1.1359594167
1.1366848870
1.1373744435
1.1380124835
1.1385850703
1.1390802510
1.1394880877
1.1398006288
1.1400120538
1.1401185196
1.1403135181
1.2429419590
1.2441918692
1.2439708507
1.2435460321
1.2429211357
1.2421020942
1.2410972979
1.2399172589
1.2385757553
1.2370903597
1.2354822585
1.2337769253
1.2320039275
1.2301958319
1.2283874461
1.2266137995
1.2249082148
1.2233006145
1.2218159491
1.2204730096
1.2192837339
1.2182531414
1.2173799734
1.2166572751
1.2160734843
1.2156140656
1.2152623325
1.2150005958
1.2148117594
1.2146796429
1.2145896690
1.2145300734
1.2144916630
1.2144680682
1.2155592030
1.1314147654
1.1317510485
1.1318777404
1.1321276558
1.1324931219
1.1329631470
1.1335238458
1.1341589182
1.1348504442
1.1355794622
1.1363265903
1.1370728265
1.1377997762
1.1384903358
1.1391288851
1.1397015568
1.1401964792
1.1406038457
1.1409158445
1.1411268021
1.1412329872
1.1414012228
1.2433353416
1.2444747906
1.2442404669
1.2437890825
1.2431251674
1.2422558390
1.2411909984
1.2399429320
1.2385273562
1.2369638600
1.2352756304
1.2334900175
1.2316382455
1.2297542638
1.2278740736
1.2260334920
1.2242662900
1.2226025354
1.2210670828
1.2196784474
1.2184481775
1.2173808572
1.2164747950
1.2157226460
1.2151125286
1.2146296621
1.2142571935
1.2139773395
1.2137729606
1.2136278758
1.2135275361
1.2134602097
1.2134167371
1.2133907759
1.2144994062
1.1326728432
1.1330370548
1.1331649844
1.1334173249
1.1337862449
1.1342605373
1.1348260646
1.1354662552
1.1361629232
1.1368968632
1.1376484843
1.1383987372
1.1391290785
1.1398223036
1.1404627668
1.1410366090
1.1415320645
1.1419394865
1.1422512646
1.1424619235
1.1425678960
1.1427042715
1.2437459263
1.2447580750
1.2445092662
1.2440288850
1.2433223283
1.2423979881
1.2412673977
1.2399447704
1.2384479390
1.2367987082
1.2350224771
1.2331486838
1.2312104004
1.2292431551
1.2272842251
1.2253703497
1.2235357994
1.2218107969
1.2202200759
1.2187818260
1.2175071399
1.2164000949
1.2154584974
1.2146745519
1.2140360102
1.2135278136
1.2131329232
1.2128334556
1.2126122305
1.2124530750
1.2123414815
1.2122657627
1.2122168038
1.2121882985
1.2133175632
1.1341113207
1.1345084329
1.1346381235
1.1348939233
1.1352678054
1.1357482946
1.1363209342
1.1369688014
1.1376733560
1.1384150549
1.1391741380
1.1399311937
1.1406675811
1.1413657774
1.1420100512
1.1425865248
1.1430835681
1.1434917449
1.1438037169
1.1440142914
1.1441201340
1.1442198777
1.2441470149
1.2450178487
1.2447539583
1.2442432925
1.2434921441
1.2425102223
1.2413107504
1.2399099457
1.2383278533
1.2365886069
1.2347199457
1.2327535227
1.2307244135
1.2286699361
1.2266285068
1.2246380030
1.2227332188
1.2209445301
1.2192965233
1.2178070156
1.2164865847
1.2153387376
1.2143607168
1.2135442224
1.2128765988
1.2123424797
1.2119246246
1.2116050464
1.2113665269
1.2111929111
1.2110697464
1.2109854018
1.2109308185
1.2108997346
1.2120522121
1.1357165765
1.1361516288
1.1362837324
1.1365442823
1.1369250170
1.1374141347
1.1379967829
1.1386555942
1.1393715673
1.1401247062
1.1408950887
1.1416627426
1.1424084946
1.1431145579
1.1437649506
1.1443458408
1.1448457210
1.1452554534
1.1455680604
1.1457787472
1.1458845218
1.1459432952
1.2445123184
1.2452310570
1.2449520122
1.2444108096
1.2436146517
1.2425745765
1.2413055068
1.2398256782
1.2381573690
1.2363270766
1.2343649336
1.2323048838
1.2301841029
1.2280416052
1.2259171030
1.2238496564
1.2218745955
1.2200224392
1.2183175981
1.2167774737
1.2154120770
1.2142242895
1.2132107361
1.2123625665
1.2116666806
1.2111073785
1.2106672039
1.2103280618
1.2100726985
1.2098849853
1.2097505361
1.2096577869
1.2095977443
1.2095641990
1.2107416985
1.1374730060
1.1379510602
1.1380863636
1.1383532244
1.1387431036
1.1392438097
1.1398400082
1.1405137791
1.1412455353
1.1420148819
1.1428013139
1.1435839855
1.1443430743
1.1450603117
1.1457195381
1.1463068450
1.1468109315
1.1472229963
1.1475365748
1.1477474454
1.1478531268
1.1478671705
1.2448182134
1.2453776477
1.2450837755
1.2445125929
1.2436722362
1.2425750807
1.2412377351
1.2396804249
1.2379276242
1.2360081594
1.2339545347
1.2318029752
1.2295927459
1.2273645317
1.2251593531
1.2230174778
1.2209747644
1.2190618542
1.2173029519
1.2157150046
1.2143074123
1.2130823859
1.2120358877
1.2111584771
1.2104365780
1.2098541316
1.2093934502
1.2090363246
1.2087654644
1.2085647713
1.2084199336
1.2083194605
1.2082544311
1.2082186944
1.2094220922
1.1393630298
1.1398891217
1.1400285512
1.1403035610
1.1407052909
1.1412210896
1.1418350456
1.1425285653
1.1432813469
1.1440727597
1.1448806555
1.1456833504
1.1464602465
1.1471924748
1.1478635400
1.1484594432
1.1489690337
1.1493839873
1.1496985422
1.1499093374
1.1500146972
1.1499810398
1.2450450665
1.2454417961
1.2451336496
1.2445335387
1.2436506076
1.2424986120
1.2410958429
1.2394644694
1.2376310826
1.2356267432
1.2334862351
1.2312479830
1.2289532649
1.2266443683
1.2243635950
1.2221523486
1.2200470094
1.2180783091
1.2162702133
1.2146391800
1.2131939629
1.2119360670
1.2108607576
1.2099579713
1.2092136277
1.2086112843
1.2081330043
1.2077604531
1.2074762961
1.2072644637
1.2071107195
1.2070036472
1.2069344002
1.2068968892
1.2081260401
1.1413669354
1.1419460049
1.1420906244
1.1423758968
1.1427925927
1.1433275275
1.1439641091
1.1446829442
1.1454631721
1.1462828757
1.1471182576
1.1479466251
1.1487463153
1.1494977979
1.1501839616
1.1507905711
1.1513066353
1.1517244336
1.1520392525
1.1522490484
1.1523534425
1.1522702206
1.2451787062
1.2454132743
1.2450913982
1.2444634926
1.2435398926
1.2423358660
1.2408714324
1.2391706674
1.2372621753
1.2351791073
1.2329583701
1.2306404264
1.2282684317
1.2258861810
1.2235372444
1.2212638444
1.2191029534
1.2170853480
1.2152347134
1.2135669872
1.2120902511
1.2108052812
1.2097066213
1.2087835613
1.2080214921
1.2074035630
1.2069115663
1.2065270245
1.2062325438
1.2060120719
1.2058514412
1.2057393029
1.2056668812
1.2056281465
1.2068818705
1.1434629430
1.1440997425
1.1442507438
1.1445486471
1.1449838041
1.1455424189
1.1462071127
1.1469575886
1.1477725185
1.1486270819
1.1494965527
1.1503567190
1.1511848234
1.1519600959
1.1526646149
1.1532836430
1.1538063254
1.1542257833
1.1545388334
1.1547455007
1.1548475353
1.1547143447
1.2452123338
1.2452892253
1.2449538293
1.2442987923
1.2433360275
1.2420826085
1.2405604244
1.2387954550
1.2368182007
1.2346637143
1.2323708000
1.2299817324
1.2275413012
1.2250948014
1.2226870858
1.2203603674
1.2181525818
1.2160944476
1.2142093186
1.2125125794
1.2110116233
1.2097064867
1.2085909794
1.2076537292
1.2068795785
1.2062512431
1.2057502178
1.2053578575
1.2050566831
1.2048306388
1.2046656076
1.2045502927
1.2044759772
1.2044366848
1.2057128348
1.1456272830
1.1463262767
1.1464849625
1.1467980868
1.1472555315
1.1478428110
1.1485416611
1.1493311707
1.1501875993
1.1510843356
1.1519950747
1.1528939231
1.1537564039
1.1545601888
1.1552859730
1.1559182841
1.1564463316
1.1568643584
1.1571714475
1.1573708329
1.1574678112
1.1572860224
1.2451472085
1.2450746968
1.2447252018
1.2440425157
1.2430408800
1.2417397247
1.2401630893
1.2383388985
1.2362994145
1.2340813505
1.2317251312
1.2292745639
1.2267758558
1.2242756176
1.2218192443
1.2194493360
1.2172044761
1.2151152611
1.2132046640
1.2114874952
1.2099704520
1.2086528330
1.2075277150
1.2065830577
1.2058031408
1.2051702209
1.2046654652
1.2042700263
1.2039663043
1.2037382056
1.2035716354
1.2034553212
1.2033805855
1.2033414919
1.2046370860
1.1478340686
1.1485993057
1.1487670620
1.1490981654
1.1495819790
1.1502032541
1.1509427930
1.1517788003
1.1526839091
1.1536306295
1.1545903932
1.1555353111
1.1564385006
1.1572753660
1.1580247210
1.1586698637
1.1591999275
1.1596105894
1.1599041482
1.1600888067
1.1601757829
1.1599487969
1.2449935804
1.2447834388
1.2444177754
1.2437047567
1.2426623315
1.2413132181
1.2396840498
1.2378047579
1.2357091804
1.2334353737
1.2310250112
1.2285230651
1.2259768111
1.2234338110
1.2209397900
1.2185375881
1.2162661929
1.2141559915
1.2122295294
1.2105010242
1.2089764861
1.2076544946
1.2065274081
1.2055825245
1.2048035527
1.2041722662
1.2036694691
1.2032760705
1.2029743015
1.2027479853
1.2025830067
1.2024680799
1.2023945367
1.2023564612
1.2036678557
1.1500554257
1.1508903957
1.1510686512
1.1514205808
1.1519349852
1.1525958026
1.1533833827
1.1542721666
1.1552339282
1.1562387877
1.1572559901
1.1582546894
1.1592050198
1.1600793023
1.1608536450
1.1615094586
1.1620353769
1.1624286801
1.1626960552
1.1628532038
1.1629212781
1.1626546887
1.2447722177
1.2444392821
1.2440526785
1.2433029928
1.2422143343
1.2408141546
1.2391322511
1.2372005509
1.2350541389
1.2327319476
1.2302764085
1.2277331856
1.2251502026
1.2225755857
1.2200551900
1.2176319002
1.2153447317
1.2132238186
1.2112912248
1.2095605714
1.2080372021
1.2067190096
1.2055976642
1.2046598199
1.2038886144
1.2032653162
1.2027703283
1.2023842659
1.2020891334
1.2018686116
1.2017085103
1.2015974804
1.2015268238
1.2014906183
1.2028137111
1.1522617330
1.1531692121
1.1533593897
1.1537349869
1.1542842131
1.1549903490
1.1558319028
1.1567807126
1.1578071318
1.1588788823
1.1599621803
1.1610227370
1.1620267552
1.1629425737
1.1637425139
1.1644049571
1.1649171237
1.1652776263
1.1654986286
1.1656067914
1.1656398369
1.1653414676
1.2445151653
1.2440767584
1.2436594643
1.2428607744
1.2417151899
1.2402569174
1.2385194240
1.2365363233
1.2343433013
1.2319794483
1.2294872877
1.2269126024
1.2243034520
1.2217081370
1.2191724340
1.2167392829
1.2144468784
1.2123252747
1.2103960199
1.2086721277
1.2071583067
1.2058518101
1.2047436646
1.2038199110
1.2030631247
1.2024540508
1.2019726517
1.2015991928
1.2013153837
1.2011046926
1.2009527873
1.2008481945
1.2007821377
1.2007486551
1.2020790871
1.1544216634
1.1554035428
1.1556070011
1.1560089865
1.1565971490
1.1573542704
1.1582549302
1.1592710229
1.1603702783
1.1615177673
1.1626761203
1.1638068597
1.1648714854
1.1658331616
1.1666589513
1.1673224398
1.1678075650
1.1681128944
1.1682563870
1.1682797150
1.1682477497
1.1679275690
1.2442680537
1.2437433131
1.2432759665
1.2424059981
1.2411852389
1.2396569865
1.2378582701
1.2358233176
1.2335871620
1.2311879374
1.2286673698
1.2260706583
1.2234454758
1.2208398022
1.2182996636
1.2158673923
1.2135795699
1.2114666671
1.2095495932
1.2078407536
1.2063442533
1.2050567655
1.2039687325
1.2030656264
1.2023294791
1.2017405007
1.2012781736
1.2009223533
1.2006543789
1.2004574265
1.2003169446
1.2002212651
1.2001614767
1.2001315381
1.2014648816
1.1565025138
1.1575596365
1.1577775997
1.1582084743
1.1588398517
1.1596509953
1.1606168716
1.1617070675
1.1628872525
1.1641192076
1.1653616716
1.1665714312
1.1677043902
1.1687172796
1.1695699886
1.1702286155
1.1706703825
1.1708901677
1.1709095071
1.1707880856
1.1706331773
1.1703031075
1.2440955028
1.2435046221
1.2429482602
1.2419680649
1.2406433645
1.2390278911
1.2371602075
1.2350724765
1.2327967943
1.2303686728
1.2278279153
1.2252184169
1.2225869833
1.2199810572
1.2174463198
1.2150240553
1.2127500186
1.2106543553
1.2087574023
1.2070709921
1.2055986953
1.2043366758
1.2032748634
1.2023982194
1.2016882624
1.2011246627
1.2006863867
1.2003528175
1.2001048441
1.1999252638
1.1997992207
1.1997147748
1.1996628166
1.1996371815
1.2009691090
1.1584707893
1.1596028170
1.1598364201
1.1602986872
1.1609747082
1.1618440347
1.1628801033
1.1640508975
1.1653194283
1.1666442801
1.1679800405
1.1692784227
1.1704890919
1.1715610603
1.1724447987
1.1730951757
1.1734769152
1.1735733245
1.1734010531
1.1730343751
1.1726393170
1.1723130323
1.2440914845
1.2434549122
1.2427284324
1.2415709352
1.2400998591
1.2383755493
1.2364313678
1.2342917573
1.2319820697
1.2295329166
1.2269809237
1.2243679923
1.2217396939
1.2191426743
1.2166220387
1.2142181336
1.2119658929
1.2098948592
1.2080248196
1.2063670921
1.2049247759
1.2036936173
1.2026631207
1.2018178066
1.2011387218
1.2006050012
1.2001950639
1.1998877607
1.1996634500
1.1995044607
1.1993955437
1.1993244054
1.1992816722
1.1992610084
1.2005874246
1.1602926868
1.1614983570
1.1617482129
1.1622419017
1.1629647615
1.1638953035
1.1650058805
1.1662625497
1.1676259413
1.1690514698
1.1704897643
1.1718875186
1.1731879236
1.1743314269
1.1752569468
1.1759035763
1.1762148619
1.1761476901
1.1756917914
1.1749114718
1.1740276385
1.1737205178
1.2444036547
1.2437412964
1.2426687125
1.2412201550
1.2395453748
1.2376909899
1.2356684042
1.2334839052
1.2311505188
1.2286913229
1.2261387088
1.2235322587
1.2209162371
1.2183365112
1.2158376142
1.2134591866
1.2112354676
1.2091950836
1.2073573947
1.2057332693
1.2043254264
1.2031292893
1.2021340306
1.2013238082
1.2006792477
1.2001789623
1.1998008010
1.1995230280
1.1993253941
1.1991896724
1.1991001325
1.1990440462
1.1990117088
1.1989965661
1.2003137056
1.1619349402
1.1632099367
1.1634757497
1.1640017774
1.1647727706
1.1657666317
1.1669544824
1.1683007948
1.1697640438
1.1712969849
1.1728468369
1.1743559280
1.1757616249
1.1769960668
1.1779856761
1.1786498046
1.1789000976
1.1786428160
1.1777926083
1.1763211041
1.1743969552
1.1741264209
1.2452886477
1.2446190707
1.2428023569
1.2408760855
1.2389329428
1.2369410970
1.2348546272
1.2326452418
1.2303071725
1.2278540807
1.2253140856
1.2227249670
1.2201302431
1.2175754279
1.2151047095
1.2127575133
1.2105677046
1.2085624270
1.2067610107
1.2051739527
1.2038036874
1.2026454045
1.2016880376
1.2009154636
1.2003079433
1.1998435917
1.1994996748
1.1992538255
1.1990851192
1.1989746934
1.1989062537
1.1988665617
1.1988455189
1.1988363068
1.2001408040
1.1633633046
1.1647028304
1.1649848698
1.1655433607
1.1663627987
1.1674204124
1.1686864292
1.1701240225
1.1716900955
1.1733354761
1.1750050248
1.1766381721
1.1781684152
1.1795219757
1.1806150804
1.1813475997
1.1815917647
1.1811730360
1.1798421888
1.1772530677
1.1730256548
1.1728118099
1.2472363494
1.2465759526
1.2430811412
1.2403953009
1.2381477581
1.2360572922
1.2339574619
1.2317661654
1.2294556079
1.2270316662
1.2245206869
1.2219607505
1.2193961341
1.2168729585
1.2144356241
1.2121242012
1.2099718926
1.2080045138
1.2062417035
1.2046936827
1.2033626667
1.2022437045
1.2013255746
1.2005919521
1.2000227925
1.1995957439
1.1992874886
1.1990749966
1.1989366149
1.1988527787
1.1988065585
1.1987841410
1.1987749785
1.1987719482
1.2000608690
1.1645480605
1.1659462677
1.1662440664
1.1668341798
1.1677007587
1.1688206011
1.1701632825
1.1716911708
1.1733602421
1.1751203784
1.1769155580
1.1786845821
1.1803606653
1.1818697816
1.1831268328
1.1840252033
1.1844127541
1.1840353117
1.1823970329
1.1784045589
1.1694534142
1.1693137121
1.2512532112
1.2506150486
1.2431862108
1.2394062305
1.2369629306
1.2349289009
1.2329334814
1.2308374610
1.2286026182
1.2262376701
1.2237744339
1.2212557657
1.2187293547
1.2162434774
1.2138435686
1.2115703486
1.2094569060
1.2075288768
1.2058055663
1.2042970994
1.2030056056
1.2019260812
1.2010472370
1.2003526172
1.1998219307
1.1994323970
1.1991601264
1.1989814117
1.1988738378
1.1988170895
1.1987935495
1.1987887793
1.1987917398
1.1987949720
1.2000658211
1.1654634265
1.1669127056
1.1672251996
1.1678448098
1.1687555069
1.1699338105
1.1713489772
1.1729630116
1.1747316359
1.1766047976
1.1785271716
1.1804395787
1.1822797154
1.1839826095
1.1854815991
1.1867088001
1.1875976837
1.1880954837
1.1882056888
1.1881272921
1.1888031465
1.1976367002
1.2099527632
1.2027877994
1.2231153210
1.2339707930
1.2354544902
1.2353559597
1.2345487169
1.2333038779
1.2317214760
1.2298586799
1.2277652894
1.2254927372
1.2230952958
1.2206282089
1.2181462426
1.2157015313
1.2133410698
1.2111066829
1.2090321086
1.2071433676
1.2054589248
1.2039891366
1.2027361317
1.2016949138
1.2008541892
1.2001974364
1.1997041730
1.1993512341
1.1991141838
1.1989686432
1.1988914247
1.1988614398
1.1988603530
1.1988730712
1.1988880377
1.1988974368
1.2001481466
1.1660874747
1.1675786329
1.1679041733
1.1685500369
1.1695001181
1.1707308596
1.1722114630
1.1739039508
1.1757643026
1.1777432053
1.1797869132
1.1818393594
1.1838439082
1.1857453580
1.1874937442
1.1890493735
1.1903924463
1.1915455146
1.1926221672
1.1939382160
1.1963253974
1.2024848903
1.2098917839
1.2026555128
1.2176937314
1.2268999857
1.2306544142
1.2321778850
1.2323961657
1.2317780087
1.2305777829
1.2289516022
1.2270089566
1.2248368257
1.2225108042
1.2200988764
1.2176630956
1.2152598011
1.2129393155
1.2107433871
1.2087069095
1.2068560026
1.2052086737
1.2037755245
1.2025587258
1.2015534200
1.2007484000
1.2001271554
1.1996690758
1.1993506647
1.1991469768
1.1990329831
1.1989847344
1.1989803670
1.1990008163
1.1990303285
1.1990568218
1.1990721181
1.2003010143
1.1664032692
1.1679258229
1.1682622357
1.1689300455
1.1699131710
1.1711881320
1.1727242927
1.1744839719
1.1764237353
1.1784953684
1.1806470321
1.1828259104
1.1849806495
1.1870641594
1.1890385956
1.1908814052
1.1925947784
1.1942242716
1.1958905855
1.1978445101
1.2005714326
1.2049493028
1.2096111711
1.2098886862
1.2181136786
1.2244959047
1.2281903706
1.2301415882
1.2308220572
1.2305748911
1.2296428657
1.2282027515
1.2263883074
1.2243063082
1.2220466178
1.2196866779
1.2172948008
1.2149332629
1.2126507299
1.2104910472
1.2084899990
1.2066737786
1.2050606296
1.2036609670
1.2024771019
1.2015043902
1.2007317634
1.2001427667
1.1997167079
1.1994298102
1.1992566714
1.1991716600
1.1991501101
1.1991694189
1.1992098187
1.1992549139
1.1992921098
1.1993128744
1.2005186309
1.1663998968
1.1679423273
1.1682869832
1.1689714962
1.1699798941
1.1712888955
1.1728681821
1.1746805513
1.1766833316
1.1788295254
1.1810691643
1.1833523060
1.1856318481
1.1878666065
1.1900265325
1.1920983104
1.1940926966
1.1960576403
1.1980961114
1.2003862136
1.2031965238
1.2068141477
1.2106107784
1.2132388206
1.2187546100
1.2235770666
1.2269092655
1.2289102858
1.2297773903
1.2297296391
1.2289657718
1.2276549243
1.2259366195
1.2239264942
1.2217221427
1.2194070855
1.2170561759
1.2147327877
1.2124851917
1.2103586023
1.2083892944
1.2066040279
1.2050210997
1.2036506415
1.2024955294
1.2015512950
1.2008069778
1.2002461938
1.1998482010
1.1995889942
1.1994427764
1.1993833815
1.1993854982
1.1994258490
1.1994840193
1.1995430189
1.1995897771
1.1996154322
1.2007970226
1.1660732217
1.1676232670
1.1679731681
1.1686683869
1.1696931243
1.1710243834
1.1726322663
1.1744801524
1.1765262000
1.1787245921
1.1810269993
1.1833857786
1.1857569474
1.1881032932
1.1903995029
1.1926370370
1.1948292503
1.1970206597
1.1992962262
1.2017839759
1.2046414309
1.2079725246
1.2114980176
1.2148128428
1.2192151933
1.2232384012
1.2262778451
1.2282351888
1.2291696578
1.2292217592
1.2285542178
1.2273242888
1.2256707699
1.2237124625
1.2215508624
1.2192727278
1.2169572563
1.2146670168
1.2124504935
1.2103533403
1.2084120387
1.2066536758
1.2050965981
1.2037513005
1.2026206308
1.2017002814
1.2009796176
1.2004424229
1.2000679646
1.1998320655
1.1997085967
1.1996709282
1.1996931854
1.1997514955
1.1998248673
1.1998957836
1.1999507481
1.1999806044
1.2011374731
1.1654261759
1.1669711731
1.1673230664
1.1680224668
1.1690537915
1.1703943841
1.1720148241
1.1738791189
1.1759462442
1.1781714280
1.1805076609
1.1829089631
1.1853334064
1.1877462988
1.1901251687
1.1924642430
1.1947779580
1.1971086471
1.1995321794
1.2021526076
1.2050814565
1.2083685628
1.2118602699
1.2153901014
1.2194109585
1.2231219689
1.2260296390
1.2279621705
1.2289243482
1.2290222627
1.2284018171
1.2272143207
1.2255978513
1.2236725296
1.2215409745
1.2192914965
1.2170050245
1.2147425965
1.2125526934
1.2104808438
1.2085635408
1.2068279933