<VTKFile type="UnstructuredGrid" version="0.1">
	<UnstructuredGrid>
		<Piece NumberOfPoints="13548" NumberOfCells="3387">
			<CellData>
				<DataArray type="Int32" Name="ghost" NumberOfComponents="1" Format="ascii">
1
1
1
1
1
1
1
1
1
1
1
1
1
1
1
1
1
1
1
1
1
1
1
1
1
1
1
1
1
1
1
1
1
1
1
1
1
1
1
1
1
1
1
1
1
1
1
1
1
1
1
1
1
1
1
1
1
1
0
0
0
0
0
0
0
0
0
0
0
0
0
0
0
0
0
0
0
0
1
1
0
0
0
0
0
0
0
0
0
0
0
0
0
0
0
0
0
0
0
0
0
0
0
0
0
0
0
0
0
0
0
0
0
1
1
0
0
0
0
0
0
0
0
0
0
0
0
0
0
0
0
0
0
0
0
1
1
0
0
0
0
0
0
0
0
0
0
0
0
0
0
0
0
0
0
0
0
0
0
0
0
0
0
0
0
0
0
0
0
0
1
1
0
0
0
0
0
0
0
0
0
0
0
0
0
0
0
0
0
0
0
0
1
1
0
0
0
0
0
0
0
0
0
0
0
0
0
0
0
0
0
0
0
0
0
0
0
0
0
0
0
0
0
0
0
0
0
1
1
0
0
0
0
0
0
0
0
0
0
0
0
0
0
0
0
0
0
0
0
1
1
0
0
0
0
0
0
0
0
0
0
0
0
0
0
0
0
0
0
0
0
0
0
0
0
0
0
0
0
0
0
0
0
0
1
1
0
0
0
0
0
0
0
0
0
0
0
0
0
0
0
0
0
0
0
0
1
1
0
0
0
0
0
0
0
0
0
0
0
0
0
0
0
0
0
0
0
0
0
0
0
0
0
0
0
0
0
0
0
0
0
1
1
0
0
0
0
0
0
0
0
0
0
0
0
0
0
0
0
0
0
0
0
1
1
0
0
0
0
0
0
0
0
0
0
0
0
0
0
0
0
0
0
0
0
0
0
0
0
0
0
0
0
0
0
0
0
0
1
1
0
0
0
0
0
0
0
0
0
0
0
0
0
0
0
0
0
0
0
0
1
1
0
0
0
0
0
0
0
0
0
0
0
0
0
0
0
0
0
0
0
0
0
0
0
0
0
0
0
0
0
0
0
0
0
1
1
0
0
0
0
0
0
0
0
0
0
0
0
0
0
0
0
0
0
0
0
1
1
0
0
0
0
0
0
0
0
0
0
0
0
0
0
0
0
0
0
0
0
0
0
0
0
0
0
0
0
0
0
0
0
0
1
1
0
0
0
0
0
0
0
0
0
0
0
0
0
0
0
0
0
0
0
0
1
1
0
0
0
0
0
0
0
0
0
0
0
0
0
0
0
0
0
0
0
0
0
0
0
0
0
0
0
0
0
0
0
0
0
1
1
0
0
0
0
0
0
0
0
0
0
0
0
0
0
0
0
0
0
0
0
1
1
0
0
0
0
0
0
0
0
0
0
0
0
0
0
0
0
0
0
0
0
0
0
0
0
0
0
0
0
0
0
0
0
0
1
1
0
0
0
0
0
0
0
0
0
0
0
0
0
0
0
0
0
0
0
0
1
1
0
0
0
0
0
0
0
0
0
0
0
0
0
0
0
0
0
0
0
0
0
0
0
0
0
0
0
0
0
0
0
0
0
1
1
0
0
0
0
0
0
0
0
0
0
0
0
0
0
0
0
0
0
0
0
1
1
0
0
0
0
0
0
0
0
0
0
0
0
0
0
0
0
0
0
0
0
0
0
0
0
0
0
0
0
0
0
0
0
0
1
1
0
0
0
0
0
0
0
0
0
0
0
0
0
0
0
0
0
0
0
0
1
1
0
0
0
0
0
0
0
0
0
0
0
0
0
0
0
0
0
0
0
0
0
0
0
0
0
0
0
0
0
0
0
0
0
1
1
0
0
0
0
0
0
0
0
0
0
0
0
0
0
0
0
0
0
0
0
1
1
0
0
0
0
0
0
0
0
0
0
0
0
0
0
0
0
0
0
0
0
0
0
0
0
0
0
0
0
0
0
0
0
0
1
1
0
0
0
0
0
0
0
0
0
0
0
0
0
0
0
0
0
0
0
0
1
1
0
0
0
0
0
0
0
0
0
0
0
0
0
0
0
0
0
0
0
0
0
0
0
0
0
0
0
0
0
0
0
0
0
1
1
0
0
0
0
0
0
0
0
0
0
0
0
0
0
0
0
0
0
0
0
1
1
0
0
0
0
0
0
0
0
0
0
0
0
0
0
0
0
0
0
0
0
0
0
0
0
0
0
0
0
0
0
0
0
0
1
1
0
0
0
0
0
0
0
0
0
0
0
0
0
0
0
0
0
0
0
0
1
1
0
0
0
0
0
0
0
0
0
0
0
0
0
0
0
0
0
0
0
0
0
0
0
0
0
0
0
0
0
0
0
0
0
1
1
0
0
0
0
0
0
0
0
0
0
0
0
0
0
0
0
0
0
0
0
1
1
0
0
0
0
0
0
0
0
0
0
0
0
0
0
0
0
0
0
0
0
0
0
0
0
0
0
0
0
0
0
0
0
0
1
1
0
0
0
0
0
0
0
0
0
0
0
0
0
0
0
0
0
0
0
0
1
1
0
0
0
0
0
0
0
0
0
0
0
0
0
0
0
0
0
0
0
0
0
0
0
0
0
0
0
0
0
0
0
0
0
1
1
0
0
0
0
0
0
0
0
0
0
0
0
0
0
0
0
0
0
0
0
1
1
0
0
0
0
0
0
0
0
0
0
0
0
0
0
0
0
0
0
0
0
0
0
0
0
0
0
0
0
0
0
0
0
0
1
1
0
0
0
0
0
0
0
0
0
0
0
0
0
0
0
0
0
0
0
0
1
1
0
0
0
0
0
0
0
0
0
0
0
0
0
0
0
0
0
0
0
0
0
0
0
0
0
0
0
0
0
0
0
0
0
1
1
0
0
0
0
0
0
0
0
0
0
0
0
0
0
0
0
0
0
0
0
1
1
0
0
0
0
0
0
0
0
0
0
0
0
0
0
0
0
0
0
0
0
0
0
0
0
0
0
0
0
0
0
0
0
0
1
1
0
0
0
0
0
0
0
0
0
0
0
0
0
0
0
0
0
0
0
0
1
1
0
0
0
0
0
0
0
0
0
0
0
0
0
0
0
0
0
0
0
0
0
0
0
0
0
0
0
0
0
0
0
0
0
1
1
0
0
0
0
0
0
0
0
0
0
0
0
0
0
0
0
0
0
0
0
1
1
0
0
0
0
0
0
0
0
0
0
0
0
0
0
0
0
0
0
0
0
0
0
0
0
0
0
0
0
0
0
0
0
0
1
1
0
0
0
0
0
0
0
0
0
0
0
0
0
0
0
0
0
0
0
0
0
1
1
0
0
0
0
0
0
0
0
0
0
0
0
0
0
0
0
0
0
0
0
0
0
0
0
0
0
0
0
0
0
0
0
0
0
1
1
0
0
0
0
0
0
0
0
0
0
0
0
0
0
0
0
0
0
0
0
0
0
0
0
0
0
0
0
0
0
0
0
0
0
0
0
0
0
0
0
0
0
0
0
0
0
0
0
0
0
0
0
0
0
0
0
0
1
1
0
0
0
0
0
0
0
0
0
0
0
0
0
0
0
0
0
0
0
0
0
0
0
0
0
0
0
0
0
0
0
0
0
0
0
0
0
0
0
0
0
0
0
0
0
0
0
0
0
0
0
0
0
0
0
0
0
1
1
0
0
0
0
0
0
0
0
0
0
0
0
0
0
0
0
0
0
0
0
0
0
0
0
0
0
0
0
0
0
0
0
0
0
0
0
0
0
0
0
0
0
0
0
0
0
0
0
0
0
0
0
0
0
0
0
0
1
1
0
0
0
0
0
0
0
0
0
0
0
0
0
0
0
0
0
0
0
0
0
0
0
0
0
0
0
0
0
0
0
0
0
0
0
0
0
0
0
0
0
0
0
0
0
0
0
0
0
0
0
0
0
0
0
0
0
1
1
0
0
0
0
0
0
0
0
0
0
0
0
0
0
0
0
0
0
0
0
0
0
0
0
0
0
0
0
0
0
0
0
0
0
0
0
0
0
0
0
0
0
0
0
0
0
0
0
0
0
0
0
0
0
0
0
0
1
1
0
0
0
0
0
0
0
0
0
0
0
0
0
0
0
0
0
0
0
0
0
0
0
0
0
0
0
0
0
0
0
0
0
0
0
0
0
0
0
0
0
0
0
0
0
0
0
0
0
0
0
0
0
0
0
0
0
1
1
0
0
0
0
0
0
0
0
0
0
0
0
0
0
0
0
0
0
0
0
0
0
0
0
0
0
0
0
0
0
0
0
0
0
0
0
0
0
0
0
0
0
0
0
0
0
0
0
0
0
0
0
0
0
0
0
0
1
1
0
0
0
0
0
0
0
0
0
0
0
0
0
0
0
0
0
0
0
0
0
0
0
0
0
0
0
0
0
0
0
0
0
0
0
0
0
0
0
0
0
0
0
0
0
0
0
0
0
0
0
0
0
0
0
0
0
1
1
0
0
0
0
0
0
0
0
0
0
0
0
0
0
0
0
0
0
0
0
0
0
0
0
0
0
0
0
0
0
0
0
0
0
0
0
0
0
0
0
0
0
0
0
0
0
0
0
0
0
0
0
0
0
0
0
0
1
1
0
0
0
0
0
0
0
0
0
0
0
0
0
0
0
0
0
0
0
0
0
0
0
0
0
0
0
0
0
0
0
0
0
0
0
0
0
0
0
0
0
0
0
0
0
0
0
0
0
0
0
0
0
0
0
0
0
1
1
0
0
0
0
0
0
0
0
0
0
0
0
0
0
0
0
0
0
0
0
0
1
1
0
0
0
0
0
0
0
0
0
0
0
0
0
0
0
0
0
0
0
0
0
0
0
0
0
0
0
0
0
0
0
0
0
0
1
1
0
0
0
0
0
0
0
0
0
0
0
0
0
0
0
0
0
0
0
0
1
1
0
0
0
0
0
0
0
0
0
0
0
0
0
0
0
0
0
0
0
0
0
0
0
0
0
0
0
0
0
0
0
0
0
1
1
0
0
0
0
0
0
0
0
0
0
0
0
0
0
0
0
0
0
0
0
1
1
0
0
0
0
0
0
0
0
0
0
0
0
0
0
0
0
0
0
0
0
0
0
0
0
0
0
0
0
0
0
0
0
0
1
1
0
0
0
0
0
0
0
0
0
0
0
0
0
0
0
0
0
0
0
0
1
1
0
0
0
0
0
0
0
0
0
0
0
0
0
0
0
0
0
0
0
0
0
0
0
0
0
0
0
0
0
0
0
0
0
1
1
0
0
0
0
0
0
0
0
0
0
0
0
0
0
0
0
0
0
0
0
1
1
0
0
0
0
0
0
0
0
0
0
0
0
0
0
0
0
0
0
0
0
0
0
0
0
0
0
0
0
0
0
0
0
0
1
1
0
0
0
0
0
0
0
0
0
0
0
0
0
0
0
0
0
0
0
0
1
1
0
0
0
0
0
0
0
0
0
0
0
0
0
0
0
0
0
0
0
0
0
0
0
0
0
0
0
0
0
0
0
0
0
1
1
0
0
0
0
0
0
0
0
0
0
0
0
0
0
0
0
0
0
0
0
1
1
0
0
0
0
0
0
0
0
0
0
0
0
0
0
0
0
0
0
0
0
0
0
0
0
0
0
0
0
0
0
0
0
0
1
1
0
0
0
0
0
0
0
0
0
0
0
0
0
0
0
0
0
0
0
0
1
1
0
0
0
0
0
0
0
0
0
0
0
0
0
0
0
0
0
0
0
0
0
0
0
0
0
0
0
0
0
0
0
0
0
1
1
0
0
0
0
0
0
0
0
0
0
0
0
0
0
0
0
0
0
0
0
1
1
0
0
0
0
0
0
0
0
0
0
0
0
0
0
0
0
0
0
0
0
0
0
0
0
0
0
0
0
0
0
0
0
0
1
1
0
0
0
0
0
0
0
0
0
0
0
0
0
0
0
0
0
0
0
0
1
1
0
0
0
0
0
0
0
0
0
0
0
0
0
0
0
0
0
0
0
0
0
0
0
0
0
0
0
0
0
0
0
0
0
1
1
0
0
0
0
0
0
0
0
0
0
0
0
0
0
0
0
0
0
0
0
1
1
0
0
0
0
0
0
0
0
0
0
0
0
0
0
0
0
0
0
0
0
0
0
0
0
0
0
0
0
0
0
0
0
0
1
1
0
0
0
0
0
0
0
0
0
0
0
0
0
0
0
0
0
0
0
0
1
1
0
0
0
0
0
0
0
0
0
0
0
0
0
0
0
0
0
0
0
0
0
0
0
0
0
0
0
0
0
0
0
0
0
1
1
0
0
0
0
0
0
0
0
0
0
0
0
0
0
0
0
0
0
0
0
1
1
0
0
0
0
0
0
0
0
0
0
0
0
0
0
0
0
0
0
0
0
0
0
0
0
0
0
0
0
0
0
0
0
0
1
1
0
0
0
0
0
0
0
0
0
0
0
0
0
0
0
0
0
0
0
0
1
1
0
0
0
0
0
0
0
0
0
0
0
0
0
0
0
0
0
0
0
0
0
0
0
0
0
0
0
0
0
0
0
0
0
1
1
0
0
0
0
0
0
0
0
0
0
0
0
0
0
0
0
0
0
0
0
1
1
0
0
0
0
0
0
0
0
0
0
0
0
0
0
0
0
0
0
0
0
0
0
0
0
0
0
0
0
0
0
0
0
0
1
1
0
0
0
0
0
0
0
0
0
0
0
0
0
0
0
0
0
0
0
0
1
1
0
0
0
0
0
0
0
0
0
0
0
0
0
0
0
0
0
0
0
0
0
0
0
0
0
0
0
0
0
0
0
0
0
1
1
0
0
0
0
0
0
0
0
0
0
0
0
0
0
0
0
0
0
0
0
1
1
0
0
0
0
0
0
0
0
0
0
0
0
0
0
0
0
0
0
0
0
0
0
0
0
0
0
0
0
0
0
0
0
0
1
1
0
0
0
0
0
0
0
0
0
0
0
0
0
0
0
0
0
0
0
0
1
1
0
0
0
0
0
0
0
0
0
0
0
0
0
0
0
0
0
0
0
0
0
0
0
0
0
0
0
0
0
0
0
0
0
1
1
0
0
0
0
0
0
0
0
0
0
0
0
0
0
0
0
0
0
0
0
1
1
0
0
0
0
0
0
0
0
0
0
0
0
0
0
0
0
0
0
0
0
0
0
0
0
0
0
0
0
0
0
0
0
0
1
1
0
0
0
0
0
0
0
0
0
0
0
0
0
0
0
0
0
0
0
0
1
1
0
0
0
0
0
0
0
0
0
0
0
0
0
0
0
0
0
0
0
0
0
0
0
0
0
0
0
0
0
0
0
0
0
1
1
0
0
0
0
0
0
0
0
0
0
0
0
0
0
0
0
0
0
0
0
1
1
0
0
0
0
0
0
0
0
0
0
0
0
0
0
0
0
0
0
0
0
0
0
0
0
0
0
0
0
0
0
0
0
0
1
1
0
0
0
0
0
0
0
0
0
0
0
0
0
0
0
0
0
0
0
0
1
1
0
0
0
0
0
0
0
0
0
0
0
0
0
0
0
0
0
0
0
0
0
0
0
0
0
0
0
0
0
0
0
0
0
1
1
1
1
1
1
1
1
1
1
1
1
1
1
1
1
1
1
1
1
1
1
1
1
1
1
1
1
1
1
1
1
1
1
1
1
1
1
1
1
1
1
1
1
1
1
1
1
1
1
1
1
1
1
1
1
1
1
				</DataArray>
				<DataArray type="Float64" Name="h" NumberOfComponents="1" Format="ascii">
1.1420444060
1.1399702764
1.1396353236
1.1389758161
1.1380122943
1.1367741167
1.1352982481
1.1336277386
1.1318097625
1.1298939916
1.1279308675
1.1259699242
1.1240587323
1.1222417934
1.1205596963
1.1190487784
1.1177405842
1.1166616378
1.1158334545
1.1152722514
1.1149889717
1.1149889717
1.2547011009
1.2549205739
1.2548516183
1.2547120214
1.2544867142
1.2541514747
1.2536714980
1.2530001905
1.2520798846
1.2508445583
1.2492253979
1.2471595943
1.2446019361
1.2415369617
1.2379895950
1.2340311908
1.2297774749
1.2253785631
1.2210026756
1.2168159200
1.2129635230
1.2095561032
1.2066621326
1.2043072112
1.2024788686
1.2011345478
1.2002105660
1.1996311091
1.1993164097
1.1991887614
1.1991773814
1.1992224536
1.1992771541
1.1993092831
1.1993092831
1.1399702764
1.1378896258
1.1375655759
1.1369275443
1.1359956046
1.1347984357
1.1333721383
1.1317587674
1.1300043933
1.1281574858
1.1262671793
1.1243815646
1.1225466012
1.1208049937
1.1191953645
1.1177519606
1.1165041938
1.1154765389
1.1146886722
1.1141552922
1.1138862561
1.1149889717
1.2549205739
1.2550903345
1.2550294930
1.2549075318
1.2547123534
1.2544240194
1.2540130564
1.2534387985
1.2526493979
1.2515833923
1.2501740740
1.2483568407
1.2460796174
1.2433146145
1.2400696520
1.2363961767
1.2323902520
1.2281858796
1.2239413920
1.2198205302
1.2159732983
1.2125205115
1.2095438070
1.2070825362
1.2051367245
1.2036739361
1.2026378844
1.2019575857
1.2015559712
1.2013564844
1.2012884959
1.2012918061
1.2013190378
1.2013375213
1.1993092831
1.1402127463
1.1381318721
1.1378099593
1.1371761315
1.1362503359
1.1350610681
1.1336441941
1.1320414928
1.1302987294
1.1284640527
1.1265862728
1.1247131628
1.1228903783
1.1211603407
1.1195614154
1.1181276209
1.1168881705
1.1158673730
1.1150847703
1.1145549589
1.1142877266
1.1153844659
1.2546572818
1.2548236975
1.2547649954
1.2546473966
1.2544585813
1.2541783003
1.2537767019
1.2532127010
1.2524340206
1.2513785732
1.2499794376
1.2481721338
1.2459049817
1.2431507852
1.2399180082
1.2362585795
1.2322686742
1.2280818920
1.2238556349
1.2197523199
1.2159204662
1.2124795096
1.2095100531
1.2070509031
1.2051020737
1.2036316173
1.2025841345
1.2018898031
1.2014728642
1.2012580981
1.2011761385
1.2011678950
1.2011868799
1.2012010479
1.1992627409
1.1406832658
1.1386028490
1.1382851581
1.1376596364
1.1367459835
1.1355723370
1.1341741052
1.1325925279
1.1308727740
1.1290623627
1.1272094651
1.1253612267
1.1235627002
1.1218557425
1.1202782029
1.1188636367
1.1176408518
1.1166338137
1.1158617853
1.1153391487
1.1150755451
1.1161598766
1.2541389369
1.2542992055
1.2542448688
1.2541361423
1.2539601977
1.2536960857
1.2533131197
1.2527693235
1.2520116122
1.2509769777
1.2495982243
1.2478111805
1.2455649818
1.2428336076
1.2396267584
1.2359972425
1.2320413551
1.2278917969
1.2237040386
1.2196378175
1.2158386887
1.2124233647
1.2094704287
1.2070176389
1.2050650109
1.2035815687
1.2025136514
1.2017936952
1.2013484738
1.2011053409
1.2009973527
1.2009675391
1.2009711089
1.2009772051
1.1992104735
1.1413731550
1.1392948491
1.1389834071
1.1383701829
1.1374745154
1.1363240220
1.1349534468
1.1334032467
1.1317177213
1.1299434673
1.1281277157
1.1263166819
1.1245545206
1.1228822401
1.1213369061
1.1199513616
1.1187537834
1.1177675968
1.1170116188
1.1164998863
1.1162418018
1.1173077245
1.2533855634
1.2535382690
1.2534902863
1.2533944827
1.2532372384
1.2529965217
1.2526403669
1.2521254561
1.2513975627
1.2503925368
1.2490428768
1.2472849687
1.2450692397
1.2423714646
1.2392031790
1.2356184427
1.2317136447
1.2276200629
1.2234902444
1.2194799417
1.2157303558
1.2123542409
1.2094272766
1.2069857446
1.2050297020
1.2035296024
1.2024342962
1.2016794528
1.2011954463
1.2009132680
1.2007693818
1.2007097885
1.2006920661
1.2006870131
1.1991601159
1.1422698253
1.1401966854
1.1398934339
1.1392963331
1.1384242611
1.1373041713
1.1359699590
1.1344610798
1.1328207178
1.1310942794
1.1293277725
1.1275661953
1.1258525145
1.1242266036
1.1227244654
1.1213779632
1.1202143914
1.1192564076
1.1185221865
1.1180252595
1.1177746763
1.1188168221
1.2524242777
1.2525699438
1.2525299846
1.2524505339
1.2523168989
1.2521055887
1.2517829324
1.2513038520
1.2506126618
1.2496440675
1.2483301990
1.2466083729
1.2444308539
1.2417758643
1.2386573607
1.2351309803
1.2312931178
1.2272730664
1.2232194661
1.2192828511
1.2155988015
1.2122750250
1.2093835525
1.2069588563
1.2050011110
1.2034826230
1.2023554263
1.2015592423
1.2010289194
1.2006999365
1.2005129375
1.2004175475
1.2003742236
1.2003557696
1.1991198178
1.1433574820
1.1412943357
1.1410011021
1.1404237298
1.1395805511
1.1384977328
1.1372081656
1.1357501170
1.1341654424
1.1324981212
1.1307926846
1.1290926445
1.1274395009
1.1258717055
1.1244239079
1.1231267021
1.1220062193
1.1210840857
1.1203775963
1.1198995800
1.1196585903
1.1206723957
1.2512867939
1.2514282950
1.2513976390
1.2513372116
1.2512309656
1.2510535855
1.2507692958
1.2503308934
1.2496809761
1.2487532233
1.2474795080
1.2457985250
1.2436650010
1.2410602775
1.2380012823
1.2345454754
1.2307890836
1.2268587968
1.2228983758
1.2190519887
1.2154484740
1.2121895776
1.2093430916
1.2069414532
1.2049850654
1.2034484669
1.2022874336
1.2014463876
1.2008653162
1.2004848114
1.2002502457
1.2001153201
1.2000437130
1.2000104643
1.1990979891
1.1446186145
1.1425723403
1.1422908092
1.1417364933
1.1409271109
1.1398879447
1.1386507563
1.1372524754
1.1357334550
1.1341360498
1.1325030932
1.1308763697
1.1292956490
1.1277976781
1.1264154549
1.1251779939
1.1241099494
1.1232316106
1.1225591081
1.1221043253
1.1218751399
1.1228569854
1.2500070377
1.2501498388
1.2501293044
1.2500896640
1.2500132432
1.2498725590
1.2496293770
1.2492340929
1.2486273767
1.2477420954
1.2465104484
1.2448727932
1.2427870958
1.2402384870
1.2372473426
1.2338730757
1.2302114538
1.2263858758
1.2225342608
1.2187933605
1.2152843106
1.2121021633
1.2093100436
1.2069382316
1.2049874981
1.2034349445
1.2022405284
1.2013538515
1.2007205030
1.2002866001
1.2000025862
1.1998265035
1.1997254434
1.1996768043
1.1991024424
1.1460344161
1.1440141305
1.1437458143
1.1432175476
1.1424463854
1.1414566566
1.1402789033
1.1389486090
1.1375044937
1.1359871341
1.1344374855
1.1328953958
1.1313986646
1.1299820621
1.1286766333
1.1275094855
1.1265034495
1.1256771252
1.1250451407
1.1246181367
1.1244030908
1.1253503546
1.2486177669
1.2487699633
1.2487598822
1.2487418265
1.2486962375
1.2485931581
1.2483916175
1.2480393729
1.2474752089
1.2466314976
1.2454413474
1.2438475871
1.2418119936
1.2393241607
1.2364082706
1.2331256594
1.2295711978
1.2258642243
1.2221358688
1.2185145224
1.2151128287
1.2120186014
1.2092900295
1.2069552127
1.2050154527
1.2034506921
1.2022253974
1.2012946737
1.2006099966
1.2001232355
1.1997900725
1.1995730019
1.1994425954
1.1993786453
1.1991413950
1.1475855584
1.1456026783
1.1453488876
1.1448492692
1.1441201868
1.1431849749
1.1420729038
1.1408179444
1.1394571013
1.1380290669
1.1365727842
1.1351259966
1.1337243248
1.1324003110
1.1311827513
1.1300965066
1.1291622064
1.1283963611
1.1278116970
1.1274172490
1.1272188118
1.1281298583
1.2471479976
1.2473201621
1.2473203992
1.2473237782
1.2473086242
1.2472422539
1.2470807421
1.2467691756
1.2462445574
1.2454392792
1.2442882369
1.2427375170
1.2407534274
1.2383305065
1.2354969398
1.2323157550
1.2288803219
1.2253050674
1.2217134117
1.2182245659
1.2149420730
1.2119461569
1.2092899566
1.2069994604
1.2050766839
1.2035046405
1.2022525328
1.2012811600
1.2005480184
1.2000108082
1.1996304797
1.1993739716
1.1992153091
1.1991366489
1.1992229905
1.1492535199
1.1473216871
1.1470835058
1.1466146910
1.1459309092
1.1450544913
1.1440134212
1.1428401354
1.1415698891
1.1402394352
1.1388856211
1.1375439654
1.1362477442
1.1350270517
1.1339081574
1.1329133342
1.1320606077
1.1313639493
1.1308337118
1.1304768741
1.1302976811
1.1311717900
1.2456214261
1.2458262700
1.2458362786
1.2458600711
1.2458736549
1.2458414261
1.2457164216
1.2454411429
1.2449511468
1.2441795545
1.2430640583
1.2415548982
1.2396235767
1.2372699020
1.2345260052
1.2314561419
1.2281514025
1.2247203850
1.2212779316
1.2179334002
1.2147808218
1.2118926720
1.2093170773
1.2070780699
1.2051785800
1.2036048787
1.2023310459
1.2013236557
1.2005462403
1.1999622936
1.1995379616
1.1992445329
1.1990593938
1.1989669907
1.1993543102
1.1510206732
1.1491555594
1.1489338262
1.1484974892
1.1478615334
1.1470473070
1.1460815305
1.1449951289
1.1438216221
1.1425958218
1.1413524527
1.1401247447
1.1389435182
1.1378362478
1.1368264326
1.1359334306
1.1351722458
1.1345538083
1.1340855329
1.1337717666
1.1336147052
1.1344519146
1.2440540857
1.2443059684
1.2443249631
1.2443675581
1.2444072605
1.2444054221
1.2443120747
1.2440673902
1.2436060082
1.2428626929
1.2417791230
1.2403105130
1.2384340708
1.2361550078
1.2335090485
1.2305609591
1.2273986148
1.2241238357
1.2208421109
1.2176524503
1.2146391743
1.2118670524
1.2093793837
1.2071984827
1.2053284136
1.2037588572
1.2024688430
1.2014307131
1.2006139589
1.1999877460
1.1995232693
1.1991960139
1.1989865908
1.1988816327
1.1995414920
1.1528705163
1.1510894917
1.1508847883
1.1504820966
1.1498957557
1.1491461797
1.1482588846
1.1472633476
1.1461914165
1.1450760148
1.1439497785
1.1428436532
1.1417859625
1.1408014604
1.1399106929
1.1391298148
1.1384703913
1.1379397520
1.1375416823
1.1372771291
1.1371455169
1.1379464054
1.2424532464
1.2427675794
1.2427948460
1.2428545579
1.2429175154
1.2429419434
1.2428750003
1.2426549578
1.2422162292
1.2414963852
1.2404423225
1.2390148728
1.2371972503
1.2349998869
1.2324614802
1.2296463501
1.2266381088
1.2235308783
1.2204201663
1.2173943564
1.2145280931
1.2118786849
1.2094849332
1.2073677524
1.2055325784
1.2039726260
1.2026718895
1.2016084035
1.2007574708
1.2000937422
1.1995932632
1.1992355214
1.1990041872
1.1988879595
1.1997888971
1.1547883328
1.1531100034
1.1529226536
1.1525542619
1.1520185740
1.1513351429
1.1505283688
1.1496263837
1.1486594715
1.1476587759
1.1466549454
1.1456767247
1.1447499926
1.1438967809
1.1431345981
1.1424761842
1.1419292749
1.1414969832
1.1411786002
1.1409706012
1.1408685295
1.1416339433
1.2408174043
1.2412099998
1.2412453740
1.2413212144
1.2414052802
1.2414525475
1.2414075199
1.2412071302
1.2407864185
1.2400871364
1.2390625789
1.2376795186
1.2359271653
1.2338206984
1.2314008723
1.2287304435
1.2258876784
1.2229581856
1.2200270710
1.2171720643
1.2144584126
1.2119364075
1.2096408167
1.2075915406
1.2057956399
1.2042499612
1.2029434306
1.2018596418
1.2009795046
1.2002829201
1.1997505469
1.1993656523
1.1991147832
1.1989885727
1.2000983487
1.1567607322
1.1552043654
1.1550344415
1.1547005025
1.1542157650
1.1535990124
1.1528736423
1.1520665756
1.1512066824
1.1503234885
1.1494458285
1.1486004240
1.1478108786
1.1470966412
1.1464722484
1.1459469503
1.1455243409
1.1452026586
1.1449756020
1.1448336288
1.1447666081
1.1454973178
1.2391348962
1.2396213545
1.2396660634
1.2397590658
1.2398643679
1.2399334036
1.2399082343
1.2397250960
1.2393207215
1.2386425261
1.2376511376
1.2363191740
1.2346415293
1.2326373260
1.2303482643
1.2278343401
1.2251674685
1.2224241276
1.2196788694
1.2169990216
1.2144409585
1.2120485852
1.2098532162
1.2078741805
1.2061204233
1.2045924936
1.2032841724
1.2021844301
1.2012795319
1.2005543544
1.1999939020
1.1995849785
1.1993168112
1.1991818298
1.2004690911
1.1587752986
1.1573601271
1.1572074643
1.1569076513
1.1564734490
1.1559229737
1.1552787505
1.1545666472
1.1538143038
1.1530498412
1.1523005290
1.1515913510
1.1509439537
1.1503755341
1.1498979492
1.1495171174
1.1492323556
1.1490363900
1.1489159505
1.1488532069
1.1488293568
1.1495256780
1.2373833952
1.2379785760
1.2380366510
1.2381519561
1.2382831857
1.2383774870
1.2383745432
1.2382106904
1.2378257163
1.2371739939
1.2362240047
1.2349537295
1.2333631465
1.2314742951
1.2293285915
1.2269821361
1.2244996851
1.2219482593
1.2193920259
1.2168884548
1.2144858049
1.2122223862
1.2101267269
1.2082180656
1.2065074847
1.2049992732
1.2036919453
1.2025796206
1.2016536254
1.2009035034
1.2003183123
1.1998881322
1.1996046648
1.1994619938
1.2008973857
1.1608205807
1.1595650119
1.1594292328
1.1591627855
1.1587780507
1.1582925854
1.1577281785
1.1571098154
1.1564641137
1.1558180431
1.1551976294
1.1546265202
1.1541248989
1.1537082939
1.1533865031
1.1531626534
1.1530320135
1.1529813489
1.1529888004
1.1530249529
1.1530572436
1.1537186424
1.2355294741
1.2362470857
1.2363277613
1.2364778281
1.2366473913
1.2367776846
1.2368059177
1.2366693702
1.2363131054
1.2356992883
1.2348036991
1.2336092736
1.2321202643
1.2303605046
1.2283699537
1.2261998791
1.2239073763
1.2215500430
1.2191821743
1.2168522055
1.2146012387
1.2124628940
1.2104636291
1.2086230793
1.2069547001
1.2054665116
1.2041615915
1.2030389364
1.2020946010
1.2013224563
1.2007152983
1.2002662086
1.1999691482
1.1998197086
1.2013765456
1.1628853231
1.1618060801
1.1616866277
1.1614524115
1.1611155064
1.1606930130
1.1602061166
1.1596790903
1.1591377436
1.1586081741
1.1581155431
1.1576826759
1.1573289819
1.1570692160
1.1569121955
1.1568594027
1.1569029809
1.1570238665
1.1571900211
1.1573558766
1.1574665038
1.1580912112
1.2335248501
1.2343772089
1.2344994114
1.2347093019
1.2349419854
1.2351299585
1.2352074959
1.2351136518
1.2348021652
1.2342450862
1.2334211238
1.2323192325
1.2309470883
1.2293292310
1.2275032773
1.2255150538
1.2234138560
1.2212482962
1.2190636420
1.2169003612
1.2147935027
1.2127729701
1.2108638509
1.2090866595
1.2074574152
1.2059878149
1.2046852717
1.2035533468
1.2025924545
1.2018004243
1.2011734547
1.2007073398
1.2003980770
1.2002426128
1.2018972014
1.1649578343
1.1640690297
1.1639652044
1.1637617803
1.1634705930
1.1631083777
1.1626958320
1.1622566689
1.1618160894
1.1613995948
1.1610318888
1.1607355721
1.1605301541
1.1604308628
1.1604472078
1.1605810878
1.1608236901
1.1611516430
1.1615220416
1.1618675684
1.1620968357
1.1626815376
1.2313003405
1.2322983428
1.2324994555
1.2328154764
1.2331549447
1.2334374525
1.2335943514
1.2335682998
1.2333257364
1.2328482029
1.2321163729
1.2311243011
1.2298827776
1.2284166565
1.2267605518
1.2249547222
1.2230409962
1.2210596544
1.2190481181
1.2170401372
1.2150658901
1.2131525251
1.2113244609
1.2096034196
1.2080082199
1.2065540871
1.2052524853
1.2041111932
1.2031345821
1.2023240434
1.2016788214
1.2011971201
1.2008767394
1.2007158225
1.2024475262
1.1670255558
1.1663377530
1.1662487587
1.1660744712
1.1658265410
1.1655214089
1.1651793714
1.1648236973
1.1644791354
1.1641708212
1.1639233775
1.1637597921
1.1637006609
1.1637632506
1.1639601154
1.1642968910
1.1647680491
1.1653503396
1.1659924005
1.1666004899
1.1670256424
1.1675653259
1.2287532959
1.2299067856
1.2302606685
1.2307646190
1.2312820065
1.2317152788
1.2319948498
1.2320713399
1.2319279515
1.2315566439
1.2309372449
1.2300696891
1.2289685028
1.2276586014
1.2261717181
1.2245427579
1.2228067060
1.2209965990
1.2191430865
1.2172746874
1.2154178695
1.2135979886
1.2118393628
1.2101651113
1.2085970569
1.2071538074
1.2058505077
1.2046987321
1.2037064283
1.2028781105
1.2022156894
1.2017194645
1.2013887933
1.2012228477
1.2030140117
1.1690744241
1.1685937329
1.1685187213
1.1683717840
1.1681644254
1.1679128365
1.1676369596
1.1673596791
1.1671053708
1.1668989345
1.1667651706
1.1667279470
1.1668098740
1.1670319582
1.1674127387
1.1679664064
1.1686980597
1.1695944654
1.1706061609
1.1716160185
1.1723929434
1.1728810225
1.2257199928
1.2270388915
1.2276953115
1.2285281998
1.2293328307
1.2299956044
1.2304539183
1.2306767604
1.2306662455
1.2304240911
1.2299329199
1.2292005307
1.2282443645
1.2270892841
1.2257642797
1.2242996804
1.2227248215
1.2210669927
1.2193512520
1.2176024286
1.2158446549
1.2141019933
1.2123991298
1.2107606707
1.2092113340
1.2077732129
1.2064646301
1.2053004453
1.2042918130
1.2034459410
1.2027669869
1.2022570090
1.2019166772
1.2017460113
1.2035818210
1.1710883591
1.1708155981
1.1707537040
1.1706322722
1.1704626845
1.1702608967
1.1700464980
1.1698419760
1.1696713031
1.1695591080
1.1695303882
1.1696100627
1.1698232984
1.1701962216
1.1707563633
1.1715324978
1.1725515635
1.1738293046
1.1753460342
1.1769912211
1.1784502310
1.1788792106
1.2219183103
1.2234149450
1.2246852140
1.2260796221
1.2273246988
1.2283149580
1.2290165401
1.2294391110
1.2296030951
1.2295130909
1.2291635662
1.2285712403
1.2277570341
1.2267463662
1.2255665101
1.2242446087
1.2228060276
1.2212740065
1.2196707724
1.2180176660
1.2163369050
1.2146525675
1.2129900936
1.2113756957
1.2098357789
1.2083963201
1.2070782894
1.2058992658
1.2048732214
1.2040096898
1.2033146248
1.2027914824
1.2024419878
1.2022668345
1.2041351507
1.1730487651
1.1729787854
1.1729291533
1.1728313847
1.1726967485
1.1725409560
1.1723831987
1.1722454796
1.1721512070
1.1721244815
1.1721901498
1.1723737633
1.1727026992
1.1732083833
1.1739290543
1.1749136024
1.1762248691
1.1779386877
1.1801266756
1.1827901861
1.1856629876
1.1860261773
1.2168206315
1.2185158224
1.2210780048
1.2234171306
1.2253092798
1.2267415721
1.2277564854
1.2284314794
1.2288095557
1.2288881347
1.2286859762
1.2282283102
1.2275419459
1.2266545677
1.2255935390
1.2243845767
1.2230507043
1.2216129348
1.2200911484
1.2185052527
1.2168769061
1.2152303555
1.2135919138
1.2119894991
1.2104514141
1.2090046086
1.2076731541
1.2064771938
1.2054325957
1.2045512307
1.2038403910
1.2033046118
1.2029463937
1.2027669450
1.2046581270
1.1749345891
1.1750558206
1.1750176093
1.1749416852
1.1748392081
1.1747256190
1.1746196373
1.1745426301
1.1745171582
1.1745662978
1.1747139410
1.1749850086
1.1754072347
1.1760149785
1.1768549413
1.1779964865
1.1795487186
1.1816869675
1.1846883705
1.1889558684
1.1949250497
1.1952202501
1.2094071258
1.2113429155
1.2167401463
1.2206362616
1.2234183686
1.2253983629
1.2267910739
1.2277488574
1.2283457715
1.2285914748
1.2285257965
1.2281846243
1.2276016129
1.2268082570
1.2258334096
1.2247029577
1.2234392069
1.2220620144
1.2205904583
1.2190438266
1.2174436707
1.2158146755
1.2141839479
1.2125807514
1.2110350217
1.2095753399
1.2082275145
1.2070135423
1.2059506626
1.2050517956
1.2043257693
1.2037780059
1.2034115803
1.2032280422
1.2051347285
1.1767224610
1.1770167280
1.1769890948
1.1769332057
1.1768601156
1.1767849701
1.1767259364
1.1767035727
1.1767392430
1.1768543340
1.1770705747
1.1774100895
1.1778971722
1.1785627066
1.1794515695
1.1806390533
1.1822672679
1.1846281257
1.1883642038
1.1949672721
1.2080015325
1.2082385464
1.1975955707
1.1998618689
1.2116910786
1.2180335977
1.2218892694
1.2244371845
1.2262156260
1.2274578125
1.2282420015
1.2286294973
1.2286739401
1.2284204946
1.2279092763
1.2271759523
1.2262519275
1.2251644301
1.2239361264
1.2225869458
1.2211359797
1.2196025003
1.2180082835
1.2163785906
1.2147412565
1.2131265181
1.2115655560
1.2100880901
1.2087211694
1.2074880070
1.2064069122
1.2054916471
1.2047517579
1.2041931854
1.2038193771
1.2036321392
1.2055489884
1.1783866374
1.1788293568
1.1788114261
1.1787737291
1.1787272263
1.1786867601
1.1786698991
1.1786962659
1.1787857347
1.1789573740
1.1792294565
1.1796186452
1.1801402169
1.1808095869
1.1816427985
1.1826572724
1.1838704924
1.1852853595
1.1868331382
1.1881710783
1.1879728468
1.1731652506
1.1590452666
1.1815360987
1.2202028811
1.2142009517
1.2162285758
1.2192291373
1.2220269838
1.2243597567
1.2262056346
1.2275711667
1.2284724245
1.2289574641
1.2290766241
1.2288778250
1.2284055184
1.2276990750
1.2267927807
1.2257158968
1.2244922856
1.2231426784
1.2216867936
1.2201443151
1.2185374933
1.2168921619
1.2152367567
1.2136022066
1.2120204833
1.2105220304
1.2091346558
1.2078822884
1.2067838347
1.2058535113
1.2051012470
1.2045332266
1.2041530656
1.2039627096
1.2058860457
1.1799003617
1.1804611720
1.1804519867
1.1804305280
1.1804076816
1.1803980110
1.1804185102
1.1804878725
1.1806244388
1.1808448053
1.1811634330
1.1815908509
1.1821322670
1.1827865208
1.1835414391
1.1843657689
1.1851936060
1.1858878869
1.1861646549
1.1854375682
1.1825080657
1.1726991896
1.1614125098
1.1837264749
1.2060293292
1.2106764154
1.2148643533
1.2185802555
1.2217331517
1.2243276234
1.2263744225
1.2278835004
1.2288936689
1.2294567629
1.2296272660
1.2294582633
1.2289993244
1.2282940232
1.2273799751
1.2262890196
1.2250467850
1.2236753533
1.2221955348
1.2206277639
1.2189949438
1.2173235165
1.2156423641
1.2139828779
1.2123774688
1.2108569048
1.2094493366
1.2081789912
1.2070649599
1.2061215852
1.2053588918
1.2047830792
1.2043977778
1.2042049642
1.2061323332
1.1812371913
1.1818810107
1.1818794712
1.1818720826
1.1818696818
1.1818866095
1.1819393844
1.1820459213
1.1822232511
1.1824858335
1.1828448461
1.1833056420
1.1838653328
1.1845105915
1.1852112945
1.1859115375
1.1865173922
1.1868756223
1.1867491999
1.1858058051
1.1836618034
1.1794728242
1.1769694332
1.1886354043
1.2019876218
1.2086645121
1.2137674743
1.2180017868
1.2215194902
1.2243800016
1.2266107258
1.2282532706
1.2293586647
1.2299850170
1.2301921851
1.2300386612
1.2295789224
1.2288606316
1.2279247673
1.2268059285
1.2255318488
1.2241263621
1.2226117588
1.2210095496
1.2193435016
1.2176407382
1.2159305461
1.2142446009
1.2126155000
1.2110740390
1.2096483537
1.2083626360
1.2072358393
1.2062821622
1.2055114976
1.2049298869
1.2045408510
1.2043463141
1.2062760590
1.1823719126
1.1830603728
1.1830651735
1.1830693558
1.1830837368
1.1831225116
1.1832018768
1.1833392191
1.1835506621
1.1838491618
1.1842435990
1.1847357699
1.1853174694
1.1859681164
1.1866485373
1.1872941171
1.1878098607
1.1880660932
1.1879101319
1.1872182671
1.1860185038
1.1845752318
1.1851304340
1.1922547877
1.2011625425
1.2077436994
1.2130956691
1.2175938202
1.2213448689
1.2243873825
1.2267623537
1.2285164499
1.2297041880
1.2303867501
1.2306274321
1.2304882435
1.2300274078
1.2292958355
1.2283373513
1.2271891475
1.2258812060
1.2244394120
1.2228879028
1.2212496384
1.2195495360
1.2178155711
1.2160774960
1.2143672109
1.2127173436
1.2111585117
1.2097185892
1.2084214657
1.2072857273
1.2063252263
1.2055495511
1.2049644653
1.2045732870
1.2043778289
1.2063086655
1.1832832576
1.1839763479
1.1839859343
1.1839987760
1.1840256962
1.1840808323
1.1841802375
1.1843410677
1.1845790196
1.1849062912
1.1853305725
1.1858517694
1.1864588731
1.1871277402
1.1878154609
1.1884557165
1.1889595185
1.1892215643
1.1891492792
1.1887338163
1.1881693499
1.1879765426
1.1895306467
1.1946409085
1.2013177542
1.2073685333
1.2126604017
1.2172222575
1.2210656799
1.2242083448
1.2266798927
1.2285205979
1.2297812216
1.2305211653
1.2308029506
1.2306893955
1.2302401985
1.2295079108
1.2285382562
1.2273705611
1.2260370063
1.2245657662
1.2229831842
1.2213140919
1.2195849240
1.2178247671
1.2160640032
1.2143347967
1.2126697443
1.2110991692
1.2096505206
1.2083472020
1.2072072729
1.2062440978
1.2054668433
1.2048809136
1.2044893648
1.2042938526
1.2062244780
1.1839556258
1.1846134134
1.1846259802
1.1846441430
1.1846787540
1.1847439805
1.1848559164
1.1850317916
1.1852873640
1.1856348223
1.1860817262
1.1866275808
1.1872605734
1.1879553969
1.1886678342
1.1893310617
1.1898588417
1.1901561945
1.1901547364
1.1898880624
1.1896001060
1.1898428796
1.1916144385
1.1958525265
1.2015011383
1.2071135082
1.2122320587
1.2167285845
1.2205634062
1.2237330301
1.2262546657
1.2281583164
1.2294859353
1.2302896562
1.2306273042
1.2305589512
1.2301428715
1.2294312358
1.2284703543
1.2273010034
1.2259574163
1.2244701953