<VTKFile type="UnstructuredGrid" version="0.1">
	<UnstructuredGrid>
		<Piece NumberOfPoints="13548" NumberOfCells="3387">
			<CellData>
				<DataArray type="Int32" Name="ghost" NumberOfComponents="1" Format="ascii">
1
1
1
1
1
1
1
1
1
1
1
1
1
1
1
1
1
1
1
1
1
1
1
1
1
1
1
1
1
1
1
1
1
1
1
1
1
1
1
1
1
1
1
1
1
1
1
1
1
1
1
1
1
1
1
1
1
1
0
0
0
0
0
0
0
0
0
0
0
0
0
0
0
0
0
0
0
0
1
1
0
0
0
0
0
0
0
0
0
0
0
0
0
0
0
0
0
0
0
0
0
0
0
0
0
0
0
0
0
0
0
0
0
1
1
0
0
0
0
0
0
0
0
0
0
0
0
0
0
0
0
0
0
0
0
1
1
0
0
0
0
0
0
0
0
0
0
0
0
0
0
0
0
0
0
0
0
0
0
0
0
0
0
0
0
0
0
0
0
0
1
1
0
0
0
0
0
0
0
0
0
0
0
0
0
0
0
0
0
0
0
0
1
1
0
0
0
0
0
0
0
0
0
0
0
0
0
0
0
0
0
0
0
0
0
0
0
0
0
0
0
0
0
0
0
0
0
1
1
0
0
0
0
0
0
0
0
0
0
0
0
0
0
0
0
0
0
0
0
1
1
0
0
0
0
0
0
0
0
0
0
0
0
0
0
0
0
0
0
0
0
0
0
0
0
0
0
0
0
0
0
0
0
0
1
1
0
0
0
0
0
0
0
0
0
0
0
0
0
0
0
0
0
0
0
0
1
1
0
0
0
0
0
0
0
0
0
0
0
0
0
0
0
0
0
0
0
0
0
0
0
0
0
0
0
0
0
0
0
0
0
1
1
0
0
0
0
0
0
0
0
0
0
0
0
0
0
0
0
0
0
0
0
1
1
0
0
0
0
0
0
0
0
0
0
0
0
0
0
0
0
0
0
0
0
0
0
0
0
0
0
0
0
0
0
0
0
0
1
1
0
0
0
0
0
0
0
0
0
0
0
0
0
0
0
0
0
0
0
0
1
1
0
0
0
0
0
0
0
0
0
0
0
0
0
0
0
0
0
0
0
0
0
0
0
0
0
0
0
0
0
0
0
0
0
1
1
0
0
0
0
0
0
0
0
0
0
0
0
0
0
0
0
0
0
0
0
1
1
0
0
0
0
0
0
0
0
0
0
0
0
0
0
0
0
0
0
0
0
0
0
0
0
0
0
0
0
0
0
0
0
0
1
1
0
0
0
0
0
0
0
0
0
0
0
0
0
0
0
0
0
0
0
0
1
1
0
0
0
0
0
0
0
0
0
0
0
0
0
0
0
0
0
0
0
0
0
0
0
0
0
0
0
0
0
0
0
0
0
1
1
0
0
0
0
0
0
0
0
0
0
0
0
0
0
0
0
0
0
0
0
1
1
0
0
0
0
0
0
0
0
0
0
0
0
0
0
0
0
0
0
0
0
0
0
0
0
0
0
0
0
0
0
0
0
0
1
1
0
0
0
0
0
0
0
0
0
0
0
0
0
0
0
0
0
0
0
0
1
1
0
0
0
0
0
0
0
0
0
0
0
0
0
0
0
0
0
0
0
0
0
0
0
0
0
0
0
0
0
0
0
0
0
1
1
0
0
0
0
0
0
0
0
0
0
0
0
0
0
0
0
0
0
0
0
1
1
0
0
0
0
0
0
0
0
0
0
0
0
0
0
0
0
0
0
0
0
0
0
0
0
0
0
0
0
0
0
0
0
0
1
1
0
0
0
0
0
0
0
0
0
0
0
0
0
0
0
0
0
0
0
0
1
1
0
0
0
0
0
0
0
0
0
0
0
0
0
0
0
0
0
0
0
0
0
0
0
0
0
0
0
0
0
0
0
0
0
1
1
0
0
0
0
0
0
0
0
0
0
0
0
0
0
0
0
0
0
0
0
1
1
0
0
0
0
0
0
0
0
0
0
0
0
0
0
0
0
0
0
0
0
0
0
0
0
0
0
0
0
0
0
0
0
0
1
1
0
0
0
0
0
0
0
0
0
0
0
0
0
0
0
0
0
0
0
0
1
1
0
0
0
0
0
0
0
0
0
0
0
0
0
0
0
0
0
0
0
0
0
0
0
0
0
0
0
0
0
0
0
0
0
1
1
0
0
0
0
0
0
0
0
0
0
0
0
0
0
0
0
0
0
0
0
1
1
0
0
0
0
0
0
0
0
0
0
0
0
0
0
0
0
0
0
0
0
0
0
0
0
0
0
0
0
0
0
0
0
0
1
1
0
0
0
0
0
0
0
0
0
0
0
0
0
0
0
0
0
0
0
0
1
1
0
0
0
0
0
0
0
0
0
0
0
0
0
0
0
0
0
0
0
0
0
0
0
0
0
0
0
0
0
0
0
0
0
1
1
0
0
0
0
0
0
0
0
0
0
0
0
0
0
0
0
0
0
0
0
1
1
0
0
0
0
0
0
0
0
0
0
0
0
0
0
0
0
0
0
0
0
0
0
0
0
0
0
0
0
0
0
0
0
0
1
1
0
0
0
0
0
0
0
0
0
0
0
0
0
0
0
0
0
0
0
0
1
1
0
0
0
0
0
0
0
0
0
0
0
0
0
0
0
0
0
0
0
0
0
0
0
0
0
0
0
0
0
0
0
0
0
1
1
0
0
0
0
0
0
0
0
0
0
0
0
0
0
0
0
0
0
0
0
1
1
0
0
0
0
0
0
0
0
0
0
0
0
0
0
0
0
0
0
0
0
0
0
0
0
0
0
0
0
0
0
0
0
0
1
1
0
0
0
0
0
0
0
0
0
0
0
0
0
0
0
0
0
0
0
0
1
1
0
0
0
0
0
0
0
0
0
0
0
0
0
0
0
0
0
0
0
0
0
0
0
0
0
0
0
0
0
0
0
0
0
1
1
0
0
0
0
0
0
0
0
0
0
0
0
0
0
0
0
0
0
0
0
1
1
0
0
0
0
0
0
0
0
0
0
0
0
0
0
0
0
0
0
0
0
0
0
0
0
0
0
0
0
0
0
0
0
0
1
1
0
0
0
0
0
0
0
0
0
0
0
0
0
0
0
0
0
0
0
0
1
1
0
0
0
0
0
0
0
0
0
0
0
0
0
0
0
0
0
0
0
0
0
0
0
0
0
0
0
0
0
0
0
0
0
1
1
0
0
0
0
0
0
0
0
0
0
0
0
0
0
0
0
0
0
0
0
1
1
0
0
0
0
0
0
0
0
0
0
0
0
0
0
0
0
0
0
0
0
0
0
0
0
0
0
0
0
0
0
0
0
0
1
1
0
0
0
0
0
0
0
0
0
0
0
0
0
0
0
0
0
0
0
0
0
1
1
0
0
0
0
0
0
0
0
0
0
0
0
0
0
0
0
0
0
0
0
0
0
0
0
0
0
0
0
0
0
0
0
0
0
1
1
0
0
0
0
0
0
0
0
0
0
0
0
0
0
0
0
0
0
0
0
0
0
0
0
0
0
0
0
0
0
0
0
0
0
0
0
0
0
0
0
0
0
0
0
0
0
0
0
0
0
0
0
0
0
0
0
0
1
1
0
0
0
0
0
0
0
0
0
0
0
0
0
0
0
0
0
0
0
0
0
0
0
0
0
0
0
0
0
0
0
0
0
0
0
0
0
0
0
0
0
0
0
0
0
0
0
0
0
0
0
0
0
0
0
0
0
1
1
0
0
0
0
0
0
0
0
0
0
0
0
0
0
0
0
0
0
0
0
0
0
0
0
0
0
0
0
0
0
0
0
0
0
0
0
0
0
0
0
0
0
0
0
0
0
0
0
0
0
0
0
0
0
0
0
0
1
1
0
0
0
0
0
0
0
0
0
0
0
0
0
0
0
0
0
0
0
0
0
0
0
0
0
0
0
0
0
0
0
0
0
0
0
0
0
0
0
0
0
0
0
0
0
0
0
0
0
0
0
0
0
0
0
0
0
1
1
0
0
0
0
0
0
0
0
0
0
0
0
0
0
0
0
0
0
0
0
0
0
0
0
0
0
0
0
0
0
0
0
0
0
0
0
0
0
0
0
0
0
0
0
0
0
0
0
0
0
0
0
0
0
0
0
0
1
1
0
0
0
0
0
0
0
0
0
0
0
0
0
0
0
0
0
0
0
0
0
0
0
0
0
0
0
0
0
0
0
0
0
0
0
0
0
0
0
0
0
0
0
0
0
0
0
0
0
0
0
0
0
0
0
0
0
1
1
0
0
0
0
0
0
0
0
0
0
0
0
0
0
0
0
0
0
0
0
0
0
0
0
0
0
0
0
0
0
0
0
0
0
0
0
0
0
0
0
0
0
0
0
0
0
0
0
0
0
0
0
0
0
0
0
0
1
1
0
0
0
0
0
0
0
0
0
0
0
0
0
0
0
0
0
0
0
0
0
0
0
0
0
0
0
0
0
0
0
0
0
0
0
0
0
0
0
0
0
0
0
0
0
0
0
0
0
0
0
0
0
0
0
0
0
1
1
0
0
0
0
0
0
0
0
0
0
0
0
0
0
0
0
0
0
0
0
0
0
0
0
0
0
0
0
0
0
0
0
0
0
0
0
0
0
0
0
0
0
0
0
0
0
0
0
0
0
0
0
0
0
0
0
0
1
1
0
0
0
0
0
0
0
0
0
0
0
0
0
0
0
0
0
0
0
0
0
0
0
0
0
0
0
0
0
0
0
0
0
0
0
0
0
0
0
0
0
0
0
0
0
0
0
0
0
0
0
0
0
0
0
0
0
1
1
0
0
0
0
0
0
0
0
0
0
0
0
0
0
0
0
0
0
0
0
0
1
1
0
0
0
0
0
0
0
0
0
0
0
0
0
0
0
0
0
0
0
0
0
0
0
0
0
0
0
0
0
0
0
0
0
0
1
1
0
0
0
0
0
0
0
0
0
0
0
0
0
0
0
0
0
0
0
0
1
1
0
0
0
0
0
0
0
0
0
0
0
0
0
0
0
0
0
0
0
0
0
0
0
0
0
0
0
0
0
0
0
0
0
1
1
0
0
0
0
0
0
0
0
0
0
0
0
0
0
0
0
0
0
0
0
1
1
0
0
0
0
0
0
0
0
0
0
0
0
0
0
0
0
0
0
0
0
0
0
0
0
0
0
0
0
0
0
0
0
0
1
1
0
0
0
0
0
0
0
0
0
0
0
0
0
0
0
0
0
0
0
0
1
1
0
0
0
0
0
0
0
0
0
0
0
0
0
0
0
0
0
0
0
0
0
0
0
0
0
0
0
0
0
0
0
0
0
1
1
0
0
0
0
0
0
0
0
0
0
0
0
0
0
0
0
0
0
0
0
1
1
0
0
0
0
0
0
0
0
0
0
0
0
0
0
0
0
0
0
0
0
0
0
0
0
0
0
0
0
0
0
0
0
0
1
1
0
0
0
0
0
0
0
0
0
0
0
0
0
0
0
0
0
0
0
0
1
1
0
0
0
0
0
0
0
0
0
0
0
0
0
0
0
0
0
0
0
0
0
0
0
0
0
0
0
0
0
0
0
0
0
1
1
0
0
0
0
0
0
0
0
0
0
0
0
0
0
0
0
0
0
0
0
1
1
0
0
0
0
0
0
0
0
0
0
0
0
0
0
0
0
0
0
0
0
0
0
0
0
0
0
0
0
0
0
0
0
0
1
1
0
0
0
0
0
0
0
0
0
0
0
0
0
0
0
0
0
0
0
0
1
1
0
0
0
0
0
0
0
0
0
0
0
0
0
0
0
0
0
0
0
0
0
0
0
0
0
0
0
0
0
0
0
0
0
1
1
0
0
0
0
0
0
0
0
0
0
0
0
0
0
0
0
0
0
0
0
1
1
0
0
0
0
0
0
0
0
0
0
0
0
0
0
0
0
0
0
0
0
0
0
0
0
0
0
0
0
0
0
0
0
0
1
1
0
0
0
0
0
0
0
0
0
0
0
0
0
0
0
0
0
0
0
0
1
1
0
0
0
0
0
0
0
0
0
0
0
0
0
0
0
0
0
0
0
0
0
0
0
0
0
0
0
0
0
0
0
0
0
1
1
0
0
0
0
0
0
0
0
0
0
0
0
0
0
0
0
0
0
0
0
1
1
0
0
0
0
0
0
0
0
0
0
0
0
0
0
0
0
0
0
0
0
0
0
0
0
0
0
0
0
0
0
0
0
0
1
1
0
0
0
0
0
0
0
0
0
0
0
0
0
0
0
0
0
0
0
0
1
1
0
0
0
0
0
0
0
0
0
0
0
0
0
0
0
0
0
0
0
0
0
0
0
0
0
0
0
0
0
0
0
0
0
1
1
0
0
0
0
0
0
0
0
0
0
0
0
0
0
0
0
0
0
0
0
1
1
0
0
0
0
0
0
0
0
0
0
0
0
0
0
0
0
0
0
0
0
0
0
0
0
0
0
0
0
0
0
0
0
0
1
1
0
0
0
0
0
0
0
0
0
0
0
0
0
0
0
0
0
0
0
0
1
1
0
0
0
0
0
0
0
0
0
0
0
0
0
0
0
0
0
0
0
0
0
0
0
0
0
0
0
0
0
0
0
0
0
1
1
0
0
0
0
0
0
0
0
0
0
0
0
0
0
0
0
0
0
0
0
1
1
0
0
0
0
0
0
0
0
0
0
0
0
0
0
0
0
0
0
0
0
0
0
0
0
0
0
0
0
0
0
0
0
0
1
1
0
0
0
0
0
0
0
0
0
0
0
0
0
0
0
0
0
0
0
0
1
1
0
0
0
0
0
0
0
0
0
0
0
0
0
0
0
0
0
0
0
0
0
0
0
0
0
0
0
0
0
0
0
0
0
1
1
0
0
0
0
0
0
0
0
0
0
0
0
0
0
0
0
0
0
0
0
1
1
0
0
0
0
0
0
0
0
0
0
0
0
0
0
0
0
0
0
0
0
0
0
0
0
0
0
0
0
0
0
0
0
0
1
1
0
0
0
0
0
0
0
0
0
0
0
0
0
0
0
0
0
0
0
0
1
1
0
0
0
0
0
0
0
0
0
0
0
0
0
0
0
0
0
0
0
0
0
0
0
0
0
0
0
0
0
0
0
0
0
1
1
0
0
0
0
0
0
0
0
0
0
0
0
0
0
0
0
0
0
0
0
1
1
0
0
0
0
0
0
0
0
0
0
0
0
0
0
0
0
0
0
0
0
0
0
0
0
0
0
0
0
0
0
0
0
0
1
1
0
0
0
0
0
0
0
0
0
0
0
0
0
0
0
0
0
0
0
0
1
1
0
0
0
0
0
0
0
0
0
0
0
0
0
0
0
0
0
0
0
0
0
0
0
0
0
0
0
0
0
0
0
0
0
1
1
0
0
0
0
0
0
0
0
0
0
0
0
0
0
0
0
0
0
0
0
1
1
0
0
0
0
0
0
0
0
0
0
0
0
0
0
0
0
0
0
0
0
0
0
0
0
0
0
0
0
0
0
0
0
0
1
1
0
0
0
0
0
0
0
0
0
0
0
0
0
0
0
0
0
0
0
0
1
1
0
0
0
0
0
0
0
0
0
0
0
0
0
0
0
0
0
0
0
0
0
0
0
0
0
0
0
0
0
0
0
0
0
1
1
1
1
1
1
1
1
1
1
1
1
1
1
1
1
1
1
1
1
1
1
1
1
1
1
1
1
1
1
1
1
1
1
1
1
1
1
1
1
1
1
1
1
1
1
1
1
1
1
1
1
1
1
1
1
1
1
				</DataArray>
				<DataArray type="Float64" Name="h" NumberOfComponents="1" Format="ascii">
1.1337387422
1.1330452720
1.1331797794
1.1334461013
1.1338389565
1.1343504535
1.1349701044
1.1356849273
1.1364795775
1.1373364615
1.1382360082
1.1391570187
1.1400770092
1.1409727513
1.1418209150
1.1425986845
1.1432845291
1.1438590084
1.1443054686
1.1446107393
1.1447657223
1.1447657223
1.2138972128
1.2149907105
1.2148215854
1.2145173833
1.2141003742
1.2136024920
1.2130633936
1.2125270319
1.2120393981
1.2116451437
1.2113838129
1.2112878795
1.2113807875
1.2116756853
1.2121758490
1.2128751173
1.2137591507
1.2148071765
1.2159934758
1.2172892442
1.2186639651
1.2200864459
1.2215262163
1.2229539675
1.2243418976
1.2256646197
1.2268989417
1.2280238530
1.2290212335
1.2298753523
1.2305727928
1.2311031454
1.2314584238
1.2316330276
1.2316330276
1.1330452720
1.1323863886
1.1325245948
1.1327982744
1.1332020280
1.1337277822
1.1343647964
1.1350997540
1.1359168980
1.1367981423
1.1377233466
1.1386706825
1.1396169896
1.1405383404
1.1414107095
1.1422106120
1.1429159050
1.1435066119
1.1439656326
1.1442794603
1.1444387712
1.1447657223
1.2149907105
1.2161085942
1.2159398882
1.2156350498
1.2152143161
1.2147070617
1.2141502862
1.2135856240
1.2130574478
1.2126097350
1.2122823721
1.2121091167
1.2121154506
1.2123170432
1.2127199016
1.2133205403
1.2141070784
1.2150608333
1.2161577573
1.2173702791
1.2186687062
1.2200223115
1.2214007826
1.2227747220
1.2241160530
1.2253989783
1.2265998055
1.2276969756
1.2286718117
1.2295080448
1.2301917665
1.2307121521
1.2310608883
1.2312321513
1.2316330276
1.1331232094
1.1324739840
1.1326125768
1.1328870214
1.1332918990
1.1338191072
1.1344578667
1.1351948128
1.1360141321
1.1368976758
1.1378252361
1.1387749163
1.1397234897
1.1406469678
1.1415212733
1.1423228796
1.1430296142
1.1436214823
1.1440813742
1.1443957810
1.1445553799
1.1448759052
1.2152315750
1.2163557184
1.2161853537
1.2158773655
1.2154521186
1.2149391552
1.2143756646
1.2138034751
1.2132671434
1.2128108101
1.2124744993
1.2122920784
1.2122891125
1.2124813296
1.2128747787
1.2134659406
1.2142430139
1.2151874213
1.2162752244
1.2174789582
1.2187690257
1.2201147816
1.2214859784
1.2228532656
1.2241885957
1.2254661858
1.2266623431
1.2277554990
1.2287269588
1.2295604317
1.2302419865
1.2307607762
1.2311084692
1.2312792291
1.2316989626
1.1332757559
1.1326458307
1.1327852068
1.1330612015
1.1334683572
1.1339985136
1.1346408142
1.1353817973
1.1362055363
1.1370937558
1.1380261115
1.1389805681
1.1399337637
1.1408615852
1.1417398482
1.1425449404
1.1432546273
1.1438488752
1.1443105541
1.1446261492
1.1447863395
1.1450938477
1.2157013967
1.2168381249
1.2166646864
1.2163508586
1.2159172223
1.2153936018
1.2148175060
1.2142310892
1.2136792188
1.2132063137
1.2128526371
1.2126522574
1.2126309068
1.2128044580
1.2131791238
1.2137514677
1.2145098675
1.2154359415
1.2165059447
1.2176925954
1.2189664609
1.2202970347
1.2216541804
1.2230086261
1.2243323738
1.2255996625
1.2267867978
1.2278721914
1.2288371163
1.2296652416
1.2303425947
1.2308582884
1.2312039578
1.2313737433
1.2318301763
1.1334995160
1.1328984238
1.1330389773
1.1333173024
1.1337278843
1.1342624767
1.1349101082
1.1356571733
1.1364875764
1.1373828524
1.1383224522
1.1392841313
1.1402443234
1.1411787262
1.1420629919
1.1428733761
1.1435875486
1.1441854147
1.1446498118
1.1449672156
1.1451283062
1.1454159562
1.2163943314
1.2175492970
1.2173712764
1.2170487293
1.2166025532
1.2160629863
1.2154680054
1.2148602423
1.2142850200
1.2137871674
1.2134073034
1.2131797997
1.2131306500
1.2132759627
1.2136222280
1.2141662175
1.2148965849
1.2157952299
1.2168386790
1.2179999063
1.2192497053
1.2205577604
1.2218940864
1.2232295175
1.2245361211
1.2257881637
1.2269619450
1.2280358464
1.2289910927
1.2298112950
1.2304824213
1.2309935267
1.2313361983
1.2315045430
1.2320138766
1.1337894429
1.1332265464
1.1333686683
1.1336500981
1.1340652461
1.1346057537
1.1352604993
1.1360156875
1.1368550000
1.1377597203
1.1387090266
1.1396803949
1.1406499841
1.1415932364
1.1424855819
1.1433030956
1.1440233155
1.1446260622
1.1450941272
1.1454139721
1.1455762786
1.1458368626
1.2173012350
1.2184790951
1.2182948651
1.2179604741
1.2174972560
1.2169360174
1.2163153774
1.2156786243
1.2150717066
1.2145400170
1.2141246657
1.2138604445
1.2137737132
1.2138809106
1.2141889169
1.2146948393
1.2153876987
1.2162497523
1.2172578675
1.2183853366
1.2196032323
1.2208814735
1.2221902591
1.2235005513
1.2247844944
1.2260163853
1.2271725126
1.2282312167
1.2291736587
1.2299833747
1.2306462571
1.2311512873
1.2314899915
1.2316564337
1.2322325731
1.1341389280
1.1336233509
1.1337674281
1.1340527292
1.1344735737
1.1350214659
1.1356851002
1.1364504485
1.1373009174
1.1382174786
1.1391789708
1.1401625190
1.1411439358
1.1420983391
1.1430008753
1.1438273909
1.1445552453
1.1451641522
1.1456368469
1.1459597737
1.1461236164
1.1463494586
1.2184095357
1.2196136452
1.2194214465
1.2190718133
1.2185866585
1.2179975425
1.2173439354
1.2166699937
1.2160224930
1.2154475702
1.2149869827
1.2146760752
1.2145416863
1.2146006872
1.2148604409
1.2153185278
1.2159644119
1.2167807703
1.2177448665
1.2188303599
1.2200086436
1.2212499036
1.2225245479
1.2238036827
1.2250595379
1.2262664417
1.2274006670
1.2284405048
1.2293670394
1.2301637184
1.2308163455
1.2313138161
1.2316475847
1.2318116660
1.2324657094
1.1345401307
1.1340806783
1.1342270924
1.1345170216
1.1349446796
1.1355014113
1.1361756961
1.1369532321
1.1378171008
1.1387479070
1.1397240872
1.1407223228
1.1417180208
1.1426858937
1.1436007437
1.1444381280
1.1451752061
1.1457915558
1.1462698405
1.1465964867
1.1467621856
1.1469450628
1.2197037351
1.2209358618
1.2207337963
1.2203652314
1.2198528322
1.2192291368
1.2185347153
1.2178148460
1.2171173681
1.2164893727
1.2159734428
1.2156056214
1.2154133446
1.2154140319
1.2156155639
1.2160161631
1.2166057826
1.2173675620
1.2182791980
1.2193147496
1.2204459559
1.2216432923
1.2228773923
1.2241195168
1.2253419878
1.2265191669
1.2276273097
1.2286446535
1.2295521992
1.2303332977
1.2309736567
1.2314620778
1.2317899384
1.2319512005
1.2326911047
1.1349839447
1.1345890230
1.1347381506
1.1350334548
1.1354690315
1.1360360498
1.1367227406
1.1375144903
1.1383940110
1.1393414658
1.1403348145
1.1413502631
1.1423627033
1.1433463837
1.1442756819
1.1451258143
1.1458736892
1.1464987298
1.1469835265
1.1473144975
1.1474823525
1.1476134306
1.2211648153
1.2224249206
1.2222109730
1.2218195376
1.2212742404
1.2206088649
1.2198653771
1.2190904727
1.2183333285
1.2176422258
1.2170607692
1.2166258530
1.2163656272
1.2162981385
1.2164318778
1.2167657710
1.2172903123
1.2179891222
1.2188403452
1.2198184528
1.2208955415
1.2220423862
1.2232298555
1.2244293734
1.2256133614
1.2267562201
1.2278341932
1.2288254693
1.2297109680
1.2304739450
1.2311000139
1.2315778823
1.2318988516
1.2320568324
1.2328872700
1.1354601979
1.1351377174
1.1352899324
1.1355913528
1.1360359455
1.1366146772
1.1373155139
1.1381234960
1.1390209076
1.1399874314
1.1410004758
1.1420356711
1.1430673296
1.1440691417
1.1450149987
1.1458797126
1.1466398991
1.1472748055
1.1477669551
1.1481027840
1.1482730506
1.1483428652
1.2227700832
1.2240561699
1.2238282507
1.2234098401
1.2228257759
1.2221114033
1.2213104274
1.2204713001
1.2196448393
1.2188807732
1.2182239313
1.2177122091
1.2173745739
1.2172297672
1.2172869185
1.2175457079
1.2179971869
1.2186254459
1.2194090675
1.2203229288
1.2213394802
1.2224297975
1.2235649899
1.2247166532
1.2258573210
1.2269614469
1.2280052785
1.2289669741
1.2298273879
1.2305696955
1.2311794309
1.2316452183
1.2319582922
1.2321125197
1.2330349194
1.1359580515
1.1357153184
1.1358709885
1.1361792545
1.1366339439
1.1372258116
1.1379425301
1.1387687532
1.1396863026
1.1406743094
1.1417095684
1.1427670502
1.1438203951
1.1448426486
1.1458071212
1.1466881539
1.1474620323
1.1481078221
1.1486080021
1.1489490795
1.1491219280
1.1491204068
1.2244938115
1.2258018556
1.2255578489
1.2251082922
1.2244795347
1.2237088533
1.2228420833
1.2219298060
1.2210248067
1.2201785230
1.2194372073
1.2188398895
1.2184164329
1.2181863087
1.2181592691
1.2183357461
1.2187073365
1.2192585585
1.2199683973
1.2208121107
1.2217624877
1.2227909009
1.2238687045
1.2249676801
1.2260604950
1.2271216820
1.2281275241
1.2290561836
1.2298884831
1.2306075507
1.2311988705
1.2316510076
1.2319551491
1.2321051345
1.2331178914
1.1364661413
1.1363097447
1.1364692333
1.1367850655
1.1372509235
1.1378573367
1.1385916616
1.1394381375
1.1403780727
1.1413899970
1.1424500080
1.1435323230
1.1446098091
1.1456547641
1.1466398226
1.1475387723
1.1483275183
1.1489849472
1.1494935556
1.1498400301
1.1500154848
1.1499320206
1.2263069163
1.2276309267
1.2273687552
1.2268839554
1.2262047488
1.2253707715
1.2244304211
1.2234368037
1.2224449990
1.2215084027
1.2206748615
1.2199846392
1.2194685327
1.2191467349
1.2190295501
1.2191181016
1.2194044869
1.2198735807
1.2205047117
1.2212734781
1.2221529854
1.2231148976
1.2241308234
1.2251727533
1.2262135245
1.2272277921
1.2281919244
1.2290841434
1.2298852945
1.2305785111
1.2311492765
1.2315861362
1.2318802624
1.2320254909
1.2331243251
1.1369729018
1.1369085805
1.1370722456
1.1373963576
1.1378744466
1.1384968063
1.1392504612
1.1401192080
1.1410838008
1.1421220998
1.1432094260
1.1443191416
1.1454232243
1.1464930965
1.1475005973
1.1484188593
1.1492233455
1.1498927741
1.1504097639
1.1507613834
1.1509392216
1.1507628281
1.2281771385
1.2295093451
1.2292270246
1.2287030971
1.2279681007
1.2270645218
1.2260437839
1.2249619114
1.2238765781
1.2228433406
1.2219117593
1.2211233747
1.2205099005
1.2200921920
1.2198809768
1.2198779464
1.2200756263
1.2204591444
1.2210081011
1.2216983825
1.2225033870
1.2233950698
1.2243453132
1.2253263549
1.2263112565
1.2272748592
1.2281936894
1.2290461077
1.2298130598
1.2304777595
1.2310257595
1.2314456431
1.2317286137
1.2318685374
1.2330469470
1.1374670050
1.1374995053
1.1376676986
1.1380007934
1.1384921650
1.1391318643
1.1399065723
1.1407996224
1.1417911731
1.1428583471
1.1439755969
1.1451153217
1.1462484758
1.1473454528
1.1483771318
1.1493158418
1.1501365117
1.1508177026
1.1513423368
1.1516981849
1.1518777589
1.1515973142
1.2300702006
1.2314013868
1.2310970256
1.2305303650
1.2297348356
1.2287563457
1.2276498240
1.2264745724
1.2252910892
1.2241572114
1.2231242471
1.2222349779
1.2215219535
1.2210065743
1.2206998087
1.2206037392
1.2207112157
1.2210075029
1.2214723816
1.2220819796
1.2228099649
1.2236285946
1.2245100580
1.2254268968
1.2263524731
1.2272619013
1.2281319632
1.2289412606
1.2296709410
1.2303043976
1.2308273429
1.2312284736
1.2314990852
1.2316331178
1.2328828907
1.1379376595
1.1380705899
1.1382436575
1.1385864273
1.1390921223
1.1397505518
1.1405480506
1.1414674718
1.1424883353
1.1435869603
1.1447368432
1.1459093046
1.1470741178
1.1482004441
1.1492579667
1.1502179899
1.1510547423
1.1517466137
1.1522770945
1.1526351706
1.1528150828
1.1524196756
1.2319502117
1.2332702057
1.2329419048
1.2323291412
1.2314690416
1.2304116161
1.2292157710
1.2279443563
1.2266607978
1.2254251964
1.2242905153
1.2233006438
1.2224888049
1.2218767754
1.2214755371
1.2212873436
1.2213052474
1.2215145218
1.2218950443
1.2224231321
1.2230727206
1.2238163905
1.2246266905
1.2254765438
1.2263397124
1.2271916959
1.2280096529
1.2287725545
1.2294618747
1.2300613063
1.2305568332
1.2309373586
1.2311943450
1.2313218599
1.2326336123
1.1383750117
1.1386106807
1.1387889608
1.1391420873
1.1396631377
1.1403416937
1.1411637507
1.1421116645
1.1431642828
1.1442970736
1.1454825040
1.1466906895
1.1478900292
1.1490481763
1.1501332869
1.1511152597
1.1519673509
1.1526675704
1.1532002629
1.1535565160
1.1537338969
1.1532133692
1.2337807357
1.2350790502
1.2347245773
1.2340622804
1.2331341999
1.2319952803
1.2307088235
1.2293413265
1.2279590322
1.2266240817
1.2253908353
1.2243040243
1.2233973047
1.2226926102
1.2222006918
1.2219237274
1.2218548358
1.2219791867
1.2222766762
1.2227237839
1.2232947146
1.2239624215
1.2246998828
1.2254805026
1.2262785645
1.2270700884
1.2278327557
1.2285460570
1.2291919389
1.2297545344
1.2302202280
1.2305782384
1.2308202822
1.2309406173
1.2323043091
1.1387704951
1.1391097602
1.1392935820
1.1396577321
1.1401951630
1.1408952518
1.1417436663
1.1427222641
1.1438092150
1.1449791216
1.1462033652
1.1474507264
1.1486879906
1.1498809442
1.1509956897
1.1520000192
1.1528654101
1.1535692282
1.1540969517
1.1544437757
1.1546131000
1.1539587495
1.2355270983
1.2367937106
1.2364096973
1.2356935981
1.2346943366
1.2334728226
1.2320970128
1.2306368352
1.2291609008
1.2277328783
1.2264080427
1.2252315640
1.2242372050
1.2234468172
1.2228706760
1.2225106432
1.2223597737
1.2224030390
1.2226203156
1.2229882317
1.2234812964
1.2240728948
1.2247365298
1.2254462045
1.2261768649
1.2269052053
1.2276095948
1.2282702130
1.2288696427
1.2293926133
1.2298260535
1.2301596187
1.2303853771
1.2304978459
1.2319032506
1.1391171685
1.1395593016
1.1397489834
1.1401248100
1.1406796409
1.1414026810
1.1422792963
1.1432908792
1.1444149654
1.1456253232
1.1468922227
1.1481829820
1.1494624959
1.1506941526
1.1518410162
1.1528674548
1.1537421051
1.1544419816
1.1549543530
1.1552795069
1.1554308308
1.1546357456
1.2371585143
1.2383847708
1.2379649274
1.2371883272
1.2361140499
1.2348101622
1.2333491277
1.2318035166
1.2302433337
1.2287328591
1.2273275389
1.2260724204
1.2250009972
1.2241347675
1.2234833953
1.2230481879
1.2228219836
1.2227895754
1.2229307893
1.2232224393
1.2236393848
1.2241555310
1.2247450151
1.2253825758
1.2260439766
1.2267067527
1.2273501385
1.2279551848
1.2285052866
1.2289859369
1.2293847615
1.2296919822
1.2299001222
1.2300040316
1.2314411504
1.1394099978
1.1399525702
1.1401484173
1.1405365569
1.1411097955
1.1418572122
1.1427639291
1.1438109596
1.1449753135
1.1462300173
1.1475442543
1.1488837728
1.1502112088
1.1514865335
1.1526683778
1.1537170472
1.1545981093
1.1552852591
1.1557661126
1.1560481294
1.1561618159
1.1552225437
1.2386518342
1.2398314605
1.2393626327
1.2385133642
1.2373581795
1.2359732881
1.2344345218
1.2328152700
1.2311851580
1.2296076400
1.2281372932
1.2268183604
1.2256836306
1.2247540916
1.2240387409
1.2235381609
1.2232448384
1.2231434511
1.2232138848
1.2234331666
1.2237765898
1.2242186779
1.2247343304
1.2252991708
1.2258899439
1.2264851974
1.2270652121
1.2276120963
1.2281102378
1.2285460650
1.2289080574
1.2291871353
1.2293763834
1.2294710591
1.2309304559
1.1396458838
1.1402847017
1.1404870027
1.1408880625
1.1414806875
1.1422538982
1.1431926788
1.1442778175
1.1454859805
1.1467896271
1.1481569575
1.1495520633
1.1509345759
1.1522601755
1.1534833556
1.1545588508
1.1554443706
1.1561068414
1.1565312217
1.1567326574
1.1567689023
1.1556867331
1.2399985049
1.2411287239
1.2405820384
1.2396369259
1.2383908884
1.2369276648
1.2353230373
1.2336475731
1.2319675920
1.2303436735
1.2288282324
1.2274639556
1.2262826127
1.2253045530
1.2245383206
1.2239836743
1.2236325975
1.2234699406
1.2234757276
1.2236273349
1.2239005578
1.2242706558
1.2247134292
1.2252055397
1.2257248787
1.2262511754
1.2267659323
1.2272524945
1.2276964190
1.2280852371
1.2284084349
1.2286577613
1.2288269654
1.2289117841
1.2303848432
1.1398237905
1.1405528869
1.1407619050
1.1411764478
1.1417893843
1.1425897782
1.1435626364
1.1446887488
1.1459447037
1.1473026782
1.1487300796
1.1501890138
1.1516360763
1.1530239688
1.1543011710
1.1554127971
1.1563043567
1.1569289818
1.1572605284
1.1573163210
1.1571911890
1.1559738289
1.2412161288
1.2422989019
1.2416093578
1.2405246045
1.2391717624
1.2376357066
1.2359838175
1.2342771729
1.2325743590
1.2309304667
1.2293943893
1.2280066688
1.2267978504
1.2257877204
1.2249851797
1.2243886949
1.2239898359
1.2237742395
1.2237221729
1.2238113899
1.2240183220
1.2243191033
1.2246905723
1.2251105771
1.2255583129
1.2260148488
1.2264630693
1.2268877197
1.2272756866
1.2276157591
1.2278985712
1.2281168208
1.2282650172
1.2283394429
1.2298185534
1.1399446581
1.1407563383
1.1409722996
1.1414008157
1.1420348978
1.1428637872
1.1438727269
1.1450428052
1.1463508814
1.1477692340
1.1492644772
1.1507975235
1.1523240784
1.1537927011
1.1551440644
1.1563108905
1.1572197981
1.1577976933
1.1579877279
1.1577857161
1.1573147159
1.1559783762
1.2423722285
1.2434157366
1.2424337323
1.2411294391
1.2396482350
1.2380528536
1.2363840465
1.2346822400
1.2329923628
1.2313612806
1.2298333828
1.2284469666
1.2272316772
1.2262072083
1.2253829303
1.2247569454
1.2243209017
1.2240611064
1.2239582725
1.2239907451
1.2241357524
1.2243704353
1.2246727985
1.2250220088
1.2253987011
1.2257854232
1.2261665781
1.2265284485
1.2268593869
1.2271495713
1.2273909052
1.2275771396
1.2277036264
1.2277672503
1.2292459169
1.1400108982
1.1408958633
1.1411189373
1.1415618055
1.1422177152
1.1430762435
1.1441231159
1.1453400701
1.1467045875
1.1481892216
1.1497612108
1.1513827021
1.1530082661
1.1545829661
1.1560401139
1.1572979521
1.1582565589
1.1587974633
1.1587928186
1.1581447219
1.1569061918
1.1554786983
1.2436357995
1.2446564615
1.2430294501
1.2413688052
1.2397419253
1.2381223656
1.2364884757
1.2348438072
1.2332134981
1.2316346578
1.2301475044
1.2287890162
1.2275889654
1.2265679075
1.2257363295
1.2250929957
1.2246300865
1.2243346351
1.2241881095
1.2241696553
1.2242574433
1.2244297444
1.2246658389
1.2249463162
1.2252533569
1.2255710914
1.2258855468
1.2261846451
1.2264583068
1.2266981995
1.2268975888
1.2270513599
1.2271557713
1.2272083525
1.2286812427
1.1400261874
1.1409737259
1.1412039986
1.1416614316
1.1423396100
1.1432285932
1.1443147840
1.1455807364
1.1470051492
1.1485622699
1.1502219939
1.1519478680
1.1536954837
1.1554094422
1.1570188806
1.1584295751
1.1595113016
1.1600782156
1.1598602437
1.1584764986
1.1554783389
1.1540044915
1.2453915819
1.2464172343
1.2432941474
1.2410709821
1.2393243920
1.2377691716
1.2362608395
1.2347491172
1.2332376725
1.2317565199
1.2303449352
1.2290412747
1.2278774722
1.2268764553
1.2260509118
1.2254013570
1.2249210586
1.2245979237
1.2244145029
1.2243509117
1.2243864014
1.2245004790
1.2246737806
1.2248883861
1.2251280824
1.2253786443
1.2256277857
1.2258651286
1.2260822215
1.2262722829
1.2264299984
1.2265514391
1.2266338109
1.2266753143
1.2281382509
1.1399949939
1.1409932290
1.1412306502
1.1417025459
1.1424027976
1.1433221346
1.1444479881
1.1457643095
1.1472518786
1.1488879650
1.1506451074
1.1524906122
1.1543846346
1.1562767925
1.1581007101
1.1597627210
1.1611185127
1.1619214365
1.1616965127
1.1594193737
1.1526869022
1.1512237725
1.2485021626
1.2495777941
1.2428595416
1.2398594131
1.2381817577
1.2368996465
1.2356728400
1.2344001378
1.2330786096
1.2317435230
1.2304414343
1.2292171776
1.2281079775
1.2271410984
1.2263327040
1.2256862662
1.2251967543
1.2248529591
1.2246388868
1.2245357595
1.2245239851
1.2245843932
1.2246990213
1.2248514604
1.2250271127
1.2252134048
1.2253997475
1.2255774768
1.2257397816
1.2258814457
1.2259985925
1.2260884962
1.2261493237
1.2261799538
1.2276298598
1.1399196587
1.1409558893
1.1412002239
1.1416861722
1.1424080958
1.1433575186
1.1445231386
1.1458908554
1.1474437932
1.1491621740
1.1510228279
1.1529990220
1.1550594940
1.1571668977
1.1592766473
1.1613356064
1.1632831849
1.1650629996
1.1666641995
1.1682550850
1.1706837976
1.1804597025
1.1929991972
1.1893334714
1.2179611322
1.2309785983
1.2340783622
1.2352661042
1.2355609658
1.2353189966
1.2347036564
1.2338239313
1.2327711962
1.2316267335
1.2304617653
1.2293354780
1.2282941964
1.2273715251
1.2265882103
1.2259520710
1.2254597065
1.2251009259
1.2248616818
1.2247243055
1.2246703678
1.2246820459
1.2247427839
1.2248376518
1.2249536181
1.2250797094
1.2252069852
1.2253284521
1.2254389056
1.2255346598
1.2256132457
1.2256731225
1.2257134033
1.2257336320
1.2271684412
1.1398040859
1.1408649438
1.1411159237
1.1416154312
1.1423584336
1.1433372926
1.1445419330
1.1459599896
1.1475770678
1.1493767859
1.1513406391
1.1534483284
1.1556776247
1.1580041013
1.1604023933
1.1628488874
1.1653289904
1.1678571436
1.1705212684
1.1735831032
1.1777515480
1.1853815873
1.1946122850
1.1907286602
1.2105626163
1.2224748558
1.2282986985
1.2314731151
1.2330831523
1.2337027093
1.2336627819
1.2331785609
1.2324050075
1.2314612716
1.2304417084
1.2294200227
1.2284521010
1.2275783374
1.2268244413
1.2262023650
1.2257109671
1.2253417239
1.2250818642
1.2249152363
1.2248244359
1.2247928339
1.2248051970
1.2248480026
1.2249096980
1.2249808162
1.2250539696
1.2251237410
1.2251864454
1.2252398466
1.2252828091
1.2253149146
1.2253361748
1.2253467664
1.2267653049
1.1396538916
1.1407257252
1.1409829351
1.1414951221
1.1422577066
1.1432638464
1.1445046640
1.1459694680
1.1476461982
1.1495216610
1.1515816485
1.1538116438
1.1561971741
1.1587241101
1.1613807645
1.1641612932
1.1670725765
1.1701504552
1.1734886446
1.1772892059
1.1819583912
1.1882741438
1.1951939342
1.1984599725
1.2101946783
1.2192281813
1.2251180005
1.2289104394
1.2311803877
1.2323554700
1.2327477531
1.2325904174
1.2320617979
1.2313008348
1.2304168693
1.2294943798
1.2285970206
1.2277711448
1.2270469711
1.2264394087
1.2259509418
1.2255745859
1.2252981635
1.2251069171
1.2249844864
1.2249153798
1.2248855197
1.2248826399
1.2248965179
1.2249190446
1.2249442338
1.2249680945
1.2249883206
1.2250039940
1.2250151887
1.2250225098
1.2250267882
1.2250287801
1.2264306200
1.1394719371
1.1405411547
1.1408038714
1.1413272565
1.1421071217
1.1431372932
1.1444098999
1.1459156612
1.1476444617
1.1495857334
1.1517287323
1.1540634587
1.1565812053
1.1592749259
1.1621412990
1.1651834838
1.1684158809
1.1718752628
1.1756370608
1.1798361512
1.1846876305
1.1904462420
1.1966237490
1.2019916517
1.2104354323
1.2177910021
1.2233391538
1.2272763312
1.2298584654
1.2313651307
1.2320514257
1.2321358845
1.2317989198
1.2311865703
1.2304158567
1.2295778292
1.2287413855
1.2279574583
1.2272597135
1.2266660816
1.2261809451
1.2257992667
1.2255096104
1.2252977397
1.2251488251
1.2250482542
1.2249828836
1.2249414996
1.2249150015
1.2248964315
1.2248809954
1.2248659186
1.2248500776
1.2248336854
1.2248178586
1.2248040860
1.2247939075
1.2247885825
1.2261738922
1.1392593486
1.1403126711
1.1405799695
1.1411126476
1.1419067989
1.1429567307
1.1442552947
1.1457942222
1.1475647793
1.1495582430
1.1517662574
1.1541818500
1.1568000058
1.1596178946
1.1626366030
1.1658630072
1.1693125793
1.1730167540
1.1770315915
1.1814442537
1.1863693066
1.1918912049
1.1977845308
1.2036653327
1.2107046255
1.2171562433
1.2223964362
1.2263316731
1.2290531611
1.2307440120
1.2316117562
1.2318557998
1.2316515448
1.2311457873
1.2304584996
1.2296839373
1.2288938418
1.2281424809
1.2274661733
1.2268838848
1.2264017133
1.2260160481
1.2257162760
1.2254888897
1.2253194432
1.2251940607
1.2251005867
1.2250287303
1.2249703037
1.2249192570
1.2248717276
1.2248258908
1.2247815510
1.2247398134
1.2247026194
1.2246721613
1.2246505448
1.2246394311
1.2260087978
1.1390158181
1.1400405204
1.1403112887
1.1408509687
1.1416557946
1.1427203209
1.1440377751
1.1456004129
1.1474002171
1.1494294175
1.1516808809
1.1541491585
1.1568310336
1.1597256056
1.1628357460
1.1661693676
1.1697410891
1.1735776822
1.1777231307
1.1822395817
1.1871975238
1.1926282933
1.1984046953
1.2043698847
1.2108706603
1.2169298689
1.2220090604
1.2259264009
1.2287046325
1.2304816786
1.2314403857
1.2317687327
1.2316380193
1.2311937198
1.2305561985
1.2298206528
1.2290596578
1.2283291460
1.2276672790
1.2270921977
1.2266117647
1.2262233125