<VTKFile type="UnstructuredGrid" version="0.1">
	<UnstructuredGrid>
		<Piece NumberOfPoints="13548" NumberOfCells="3387">
			<CellData>
				<DataArray type="Int32" Name="ghost" NumberOfComponents="1" Format="ascii">
1
1
1
1
1
1
1
1
1
1
1
1
1
1
1
1
1
1
1
1
1
1
1
1
1
1
1
1
1
1
1
1
1
1
1
1
1
1
1
1
1
1
1
1
1
1
1
1
1
1
1
1
1
1
1
1
1
1
0
0
0
0
0
0
0
0
0
0
0
0
0
0
0
0
0
0
0
0
1
1
0
0
0
0
0
0
0
0
0
0
0
0
0
0
0
0
0
0
0
0
0
0
0
0
0
0
0
0
0
0
0
0
0
1
1
0
0
0
0
0
0
0
0
0
0
0
0
0
0
0
0
0
0
0
0
1
1
0
0
0
0
0
0
0
0
0
0
0
0
0
0
0
0
0
0
0
0
0
0
0
0
0
0
0
0
0
0
0
0
0
1
1
0
0
0
0
0
0
0
0
0
0
0
0
0
0
0
0
0
0
0
0
1
1
0
0
0
0
0
0
0
0
0
0
0
0
0
0
0
0
0
0
0
0
0
0
0
0
0
0
0
0
0
0
0
0
0
1
1
0
0
0
0
0
0
0
0
0
0
0
0
0
0
0
0
0
0
0
0
1
1
0
0
0
0
0
0
0
0
0
0
0
0
0
0
0
0
0
0
0
0
0
0
0
0
0
0
0
0
0
0
0
0
0
1
1
0
0
0
0
0
0
0
0
0
0
0
0
0
0
0
0
0
0
0
0
1
1
0
0
0
0
0
0
0
0
0
0
0
0
0
0
0
0
0
0
0
0
0
0
0
0
0
0
0
0
0
0
0
0
0
1
1
0
0
0
0
0
0
0
0
0
0
0
0
0
0
0
0
0
0
0
0
1
1
0
0
0
0
0
0
0
0
0
0
0
0
0
0
0
0
0
0
0
0
0
0
0
0
0
0
0
0
0
0
0
0
0
1
1
0
0
0
0
0
0
0
0
0
0
0
0
0
0
0
0
0
0
0
0
1
1
0
0
0
0
0
0
0
0
0
0
0
0
0
0
0
0
0
0
0
0
0
0
0
0
0
0
0
0
0
0
0
0
0
1
1
0
0
0
0
0
0
0
0
0
0
0
0
0
0
0
0
0
0
0
0
1
1
0
0
0
0
0
0
0
0
0
0
0
0
0
0
0
0
0
0
0
0
0
0
0
0
0
0
0
0
0
0
0
0
0
1
1
0
0
0
0
0
0
0
0
0
0
0
0
0
0
0
0
0
0
0
0
1
1
0
0
0
0
0
0
0
0
0
0
0
0
0
0
0
0
0
0
0
0
0
0
0
0
0
0
0
0
0
0
0
0
0
1
1
0
0
0
0
0
0
0
0
0
0
0
0
0
0
0
0
0
0
0
0
1
1
0
0
0
0
0
0
0
0
0
0
0
0
0
0
0
0
0
0
0
0
0
0
0
0
0
0
0
0
0
0
0
0
0
1
1
0
0
0
0
0
0
0
0
0
0
0
0
0
0
0
0
0
0
0
0
1
1
0
0
0
0
0
0
0
0
0
0
0
0
0
0
0
0
0
0
0
0
0
0
0
0
0
0
0
0
0
0
0
0
0
1
1
0
0
0
0
0
0
0
0
0
0
0
0
0
0
0
0
0
0
0
0
1
1
0
0
0
0
0
0
0
0
0
0
0
0
0
0
0
0
0
0
0
0
0
0
0
0
0
0
0
0
0
0
0
0
0
1
1
0
0
0
0
0
0
0
0
0
0
0
0
0
0
0
0
0
0
0
0
1
1
0
0
0
0
0
0
0
0
0
0
0
0
0
0
0
0
0
0
0
0
0
0
0
0
0
0
0
0
0
0
0
0
0
1
1
0
0
0
0
0
0
0
0
0
0
0
0
0
0
0
0
0
0
0
0
1
1
0
0
0
0
0
0
0
0
0
0
0
0
0
0
0
0
0
0
0
0
0
0
0
0
0
0
0
0
0
0
0
0
0
1
1
0
0
0
0
0
0
0
0
0
0
0
0
0
0
0
0
0
0
0
0
1
1
0
0
0
0
0
0
0
0
0
0
0
0
0
0
0
0
0
0
0
0
0
0
0
0
0
0
0
0
0
0
0
0
0
1
1
0
0
0
0
0
0
0
0
0
0
0
0
0
0
0
0
0
0
0
0
1
1
0
0
0
0
0
0
0
0
0
0
0
0
0
0
0
0
0
0
0
0
0
0
0
0
0
0
0
0
0
0
0
0
0
1
1
0
0
0
0
0
0
0
0
0
0
0
0
0
0
0
0
0
0
0
0
1
1
0
0
0
0
0
0
0
0
0
0
0
0
0
0
0
0
0
0
0
0
0
0
0
0
0
0
0
0
0
0
0
0
0
1
1
0
0
0
0
0
0
0
0
0
0
0
0
0
0
0
0
0
0
0
0
1
1
0
0
0
0
0
0
0
0
0
0
0
0
0
0
0
0
0
0
0
0
0
0
0
0
0
0
0
0
0
0
0
0
0
1
1
0
0
0
0
0
0
0
0
0
0
0
0
0
0
0
0
0
0
0
0
1
1
0
0
0
0
0
0
0
0
0
0
0
0
0
0
0
0
0
0
0
0
0
0
0
0
0
0
0
0
0
0
0
0
0
1
1
0
0
0
0
0
0
0
0
0
0
0
0
0
0
0
0
0
0
0
0
1
1
0
0
0
0
0
0
0
0
0
0
0
0
0
0
0
0
0
0
0
0
0
0
0
0
0
0
0
0
0
0
0
0
0
1
1
0
0
0
0
0
0
0
0
0
0
0
0
0
0
0
0
0
0
0
0
1
1
0
0
0
0
0
0
0
0
0
0
0
0
0
0
0
0
0
0
0
0
0
0
0
0
0
0
0
0
0
0
0
0
0
1
1
0
0
0
0
0
0
0
0
0
0
0
0
0
0
0
0
0
0
0
0
1
1
0
0
0
0
0
0
0
0
0
0
0
0
0
0
0
0
0
0
0
0
0
0
0
0
0
0
0
0
0
0
0
0
0
1
1
0
0
0
0
0
0
0
0
0
0
0
0
0
0
0
0
0
0
0
0
1
1
0
0
0
0
0
0
0
0
0
0
0
0
0
0
0
0
0
0
0
0
0
0
0
0
0
0
0
0
0
0
0
0
0
1
1
0
0
0
0
0
0
0
0
0
0
0
0
0
0
0
0
0
0
0
0
1
1
0
0
0
0
0
0
0
0
0
0
0
0
0
0
0
0
0
0
0
0
0
0
0
0
0
0
0
0
0
0
0
0
0
1
1
0
0
0
0
0
0
0
0
0
0
0
0
0
0
0
0
0
0
0
0
0
1
1
0
0
0
0
0
0
0
0
0
0
0
0
0
0
0
0
0
0
0
0
0
0
0
0
0
0
0
0
0
0
0
0
0
0
1
1
0
0
0
0
0
0
0
0
0
0
0
0
0
0
0
0
0
0
0
0
0
0
0
0
0
0
0
0
0
0
0
0
0
0
0
0
0
0
0
0
0
0
0
0
0
0
0
0
0
0
0
0
0
0
0
0
0
1
1
0
0
0
0
0
0
0
0
0
0
0
0
0
0
0
0
0
0
0
0
0
0
0
0
0
0
0
0
0
0
0
0
0
0
0
0
0
0
0
0
0
0
0
0
0
0
0
0
0
0
0
0
0
0
0
0
0
1
1
0
0
0
0
0
0
0
0
0
0
0
0
0
0
0
0
0
0
0
0
0
0
0
0
0
0
0
0
0
0
0
0
0
0
0
0
0
0
0
0
0
0
0
0
0
0
0
0
0
0
0
0
0
0
0
0
0
1
1
0
0
0
0
0
0
0
0
0
0
0
0
0
0
0
0
0
0
0
0
0
0
0
0
0
0
0
0
0
0
0
0
0
0
0
0
0
0
0
0
0
0
0
0
0
0
0
0
0
0
0
0
0
0
0
0
0
1
1
0
0
0
0
0
0
0
0
0
0
0
0
0
0
0
0
0
0
0
0
0
0
0
0
0
0
0
0
0
0
0
0
0
0
0
0
0
0
0
0
0
0
0
0
0
0
0
0
0
0
0
0
0
0
0
0
0
1
1
0
0
0
0
0
0
0
0
0
0
0
0
0
0
0
0
0
0
0
0
0
0
0
0
0
0
0
0
0
0
0
0
0
0
0
0
0
0
0
0
0
0
0
0
0
0
0
0
0
0
0
0
0
0
0
0
0
1
1
0
0
0
0
0
0
0
0
0
0
0
0
0
0
0
0
0
0
0
0
0
0
0
0
0
0
0
0
0
0
0
0
0
0
0
0
0
0
0
0
0
0
0
0
0
0
0
0
0
0
0
0
0
0
0
0
0
1
1
0
0
0
0
0
0
0
0
0
0
0
0
0
0
0
0
0
0
0
0
0
0
0
0
0
0
0
0
0
0
0
0
0
0
0
0
0
0
0
0
0
0
0
0
0
0
0
0
0
0
0
0
0
0
0
0
0
1
1
0
0
0
0
0
0
0
0
0
0
0
0
0
0
0
0
0
0
0
0
0
0
0
0
0
0
0
0
0
0
0
0
0
0
0
0
0
0
0
0
0
0
0
0
0
0
0
0
0
0
0
0
0
0
0
0
0
1
1
0
0
0
0
0
0
0
0
0
0
0
0
0
0
0
0
0
0
0
0
0
0
0
0
0
0
0
0
0
0
0
0
0
0
0
0
0
0
0
0
0
0
0
0
0
0
0
0
0
0
0
0
0
0
0
0
0
1
1
0
0
0
0
0
0
0
0
0
0
0
0
0
0
0
0
0
0
0
0
0
1
1
0
0
0
0
0
0
0
0
0
0
0
0
0
0
0
0
0
0
0
0
0
0
0
0
0
0
0
0
0
0
0
0
0
0
1
1
0
0
0
0
0
0
0
0
0
0
0
0
0
0
0
0
0
0
0
0
1
1
0
0
0
0
0
0
0
0
0
0
0
0
0
0
0
0
0
0
0
0
0
0
0
0
0
0
0
0
0
0
0
0
0
1
1
0
0
0
0
0
0
0
0
0
0
0
0
0
0
0
0
0
0
0
0
1
1
0
0
0
0
0
0
0
0
0
0
0
0
0
0
0
0
0
0
0
0
0
0
0
0
0
0
0
0
0
0
0
0
0
1
1
0
0
0
0
0
0
0
0
0
0
0
0
0
0
0
0
0
0
0
0
1
1
0
0
0
0
0
0
0
0
0
0
0
0
0
0
0
0
0
0
0
0
0
0
0
0
0
0
0
0
0
0
0
0
0
1
1
0
0
0
0
0
0
0
0
0
0
0
0
0
0
0
0
0
0
0
0
1
1
0
0
0
0
0
0
0
0
0
0
0
0
0
0
0
0
0
0
0
0
0
0
0
0
0
0
0
0
0
0
0
0
0
1
1
0
0
0
0
0
0
0
0
0
0
0
0
0
0
0
0
0
0
0
0
1
1
0
0
0
0
0
0
0
0
0
0
0
0
0
0
0
0
0
0
0
0
0
0
0
0
0
0
0
0
0
0
0
0
0
1
1
0
0
0
0
0
0
0
0
0
0
0
0
0
0
0
0
0
0
0
0
1
1
0
0
0
0
0
0
0
0
0
0
0
0
0
0
0
0
0
0
0
0
0
0
0
0
0
0
0
0
0
0
0
0
0
1
1
0
0
0
0
0
0
0
0
0
0
0
0
0
0
0
0
0
0
0
0
1
1
0
0
0
0
0
0
0
0
0
0
0
0
0
0
0
0
0
0
0
0
0
0
0
0
0
0
0
0
0
0
0
0
0
1
1
0
0
0
0
0
0
0
0
0
0
0
0
0
0
0
0
0
0
0
0
1
1
0
0
0
0
0
0
0
0
0
0
0
0
0
0
0
0
0
0
0
0
0
0
0
0
0
0
0
0
0
0
0
0
0
1
1
0
0
0
0
0
0
0
0
0
0
0
0
0
0
0
0
0
0
0
0
1
1
0
0
0
0
0
0
0
0
0
0
0
0
0
0
0
0
0
0
0
0
0
0
0
0
0
0
0
0
0
0
0
0
0
1
1
0
0
0
0
0
0
0
0
0
0
0
0
0
0
0
0
0
0
0
0
1
1
0
0
0
0
0
0
0
0
0
0
0
0
0
0
0
0
0
0
0
0
0
0
0
0
0
0
0
0
0
0
0
0
0
1
1
0
0
0
0
0
0
0
0
0
0
0
0
0
0
0
0
0
0
0
0
1
1
0
0
0
0
0
0
0
0
0
0
0
0
0
0
0
0
0
0
0
0
0
0
0
0
0
0
0
0
0
0
0
0
0
1
1
0
0
0
0
0
0
0
0
0
0
0
0
0
0
0
0
0
0
0
0
1
1
0
0
0
0
0
0
0
0
0
0
0
0
0
0
0
0
0
0
0
0
0
0
0
0
0
0
0
0
0
0
0
0
0
1
1
0
0
0
0
0
0
0
0
0
0
0
0
0
0
0
0
0
0
0
0
1
1
0
0
0
0
0
0
0
0
0
0
0
0
0
0
0
0
0
0
0
0
0
0
0
0
0
0
0
0
0
0
0
0
0
1
1
0
0
0
0
0
0
0
0
0
0
0
0
0
0
0
0
0
0
0
0
1
1
0
0
0
0
0
0
0
0
0
0
0
0
0
0
0
0
0
0
0
0
0
0
0
0
0
0
0
0
0
0
0
0
0
1
1
0
0
0
0
0
0
0
0
0
0
0
0
0
0
0
0
0
0
0
0
1
1
0
0
0
0
0
0
0
0
0
0
0
0
0
0
0
0
0
0
0
0
0
0
0
0
0
0
0
0
0
0
0
0
0
1
1
0
0
0
0
0
0
0
0
0
0
0
0
0
0
0
0
0
0
0
0
1
1
0
0
0
0
0
0
0
0
0
0
0
0
0
0
0
0
0
0
0
0
0
0
0
0
0
0
0
0
0
0
0
0
0
1
1
0
0
0
0
0
0
0
0
0
0
0
0
0
0
0
0
0
0
0
0
1
1
0
0
0
0
0
0
0
0
0
0
0
0
0
0
0
0
0
0
0
0
0
0
0
0
0
0
0
0
0
0
0
0
0
1
1
0
0
0
0
0
0
0
0
0
0
0
0
0
0
0
0
0
0
0
0
1
1
0
0
0
0
0
0
0
0
0
0
0
0
0
0
0
0
0
0
0
0
0
0
0
0
0
0
0
0
0
0
0
0
0
1
1
0
0
0
0
0
0
0
0
0
0
0
0
0
0
0
0
0
0
0
0
1
1
0
0
0
0
0
0
0
0
0
0
0
0
0
0
0
0
0
0
0
0
0
0
0
0
0
0
0
0
0
0
0
0
0
1
1
0
0
0
0
0
0
0
0
0
0
0
0
0
0
0
0
0
0
0
0
1
1
0
0
0
0
0
0
0
0
0
0
0
0
0
0
0
0
0
0
0
0
0
0
0
0
0
0
0
0
0
0
0
0
0
1
1
0
0
0
0
0
0
0
0
0
0
0
0
0
0
0
0
0
0
0
0
1
1
0
0
0
0
0
0
0
0
0
0
0
0
0
0
0
0
0
0
0
0
0
0
0
0
0
0
0
0
0
0
0
0
0
1
1
1
1
1
1
1
1
1
1
1
1
1
1
1
1
1
1
1
1
1
1
1
1
1
1
1
1
1
1
1
1
1
1
1
1
1
1
1
1
1
1
1
1
1
1
1
1
1
1
1
1
1
1
1
1
1
1
				</DataArray>
				<DataArray type="Float64" Name="h" NumberOfComponents="1" Format="ascii">
1.1583675588
1.1589676438
1.1587898036
1.1584388987
1.1579240081
1.1572584126
1.1564592276
1.1555468312
1.1545442743
1.1534767205
1.1523707250
1.1512535407
1.1501525498
1.1490945739
1.1481052106
1.1472083355
1.1464255366
1.1457755649
1.1452739670
1.1449327382
1.1447599898
1.1447599898
1.2071752817
1.2057573095
1.2061191199
1.2068416348
1.2079167674
1.2093317779
1.2110680680
1.2130996876
1.2153928847
1.2179055219
1.2205871887
1.2233809506
1.2262253430
1.2290572638
1.2318158247
1.2344455442
1.2368993844
1.2391411823
1.2411465203
1.2429029375
1.2444090968
1.2456729905
1.2467102142
1.2475417000
1.2481915827
1.2486857513
1.2490501231
1.2493094104
1.2494865850
1.2496019283
1.2496725812
1.2497126289
1.2497326073
1.2497394303
1.2497394303
1.1589676438
1.1594915505
1.1593151819
1.1589671860
1.1584566503
1.1577968597
1.1570049197
1.1561011803
1.1551086251
1.1540522987
1.1529585783
1.1518544694
1.1507670390
1.1497227314
1.1487467202
1.1478624305
1.1470909933
1.1464507260
1.1459567926
1.1456208721
1.1454508534
1.1447599898
1.2057573095
1.2044091699
1.2047911283
1.2055530873
1.2066848183
1.2081704880
1.2099875763
1.2121055747
1.2144858482
1.2170814099
1.2198374479
1.2226935077
1.2255858211
1.2284504128
1.2312269841
1.2338619311
1.2363110654
1.2385416128
1.2405326360
1.2422748683
1.2437695773
1.2450266066
1.2460626108
1.2468988179
1.2475590091
1.2480682179
1.2484511452
1.2487310722
1.2489294603
1.2490651096
1.2491538028
1.2492084638
1.2492387161
1.2492508431
1.2497394303
1.1586256691
1.1591476863
1.1589696744
1.1586184372
1.1581031441
1.1574372034
1.1566378849
1.1557257395
1.1547239833
1.1536579181
1.1525541908
1.1514400794
1.1503429143
1.1492893840
1.1483048785
1.1474130073
1.1466350515
1.1459894448
1.1454914370
1.1451527668
1.1449813605
1.1442974834
1.2057697199
1.2044245891
1.2048054993
1.2055654415
1.2066943085
1.2081764453
1.2099895612
1.2121034179
1.2144796785
1.2170716652
1.2198248643
1.2226790875
1.2255707790
1.2284361062
1.2312148344
1.2338533457
1.2363073683
1.2385439904
1.2405421011
1.2422922411
1.2437954817
1.2450614737
1.2461066788
1.2469521390
1.2476214699
1.2481395464
1.2485309130
1.2488186928
1.2490241895
1.2491660495
1.2492599112
1.2493185712
1.2493515500
1.2493650589
1.2498564844
1.1579506274
1.1584685478
1.1582873932
1.1579299583
1.1574055702
1.1567278755
1.1559144610
1.1549862651
1.1539669524
1.1528823196
1.1517595331
1.1506263930
1.1495107332
1.1484397059
1.1474391100
1.1465328991
1.1457426322
1.1450869553
1.1445812713
1.1442374251
1.1440634076
1.1433943952
1.2057723881
1.2044335646
1.2048127811
1.2055694703
1.2066937257
1.2081701919
1.2099769689
1.2120842864
1.2144543325
1.2170409815
1.2197902611
1.2226424704
1.2255344469
1.2284026241
1.2311868869
1.2338335884
1.2362982955
1.2385478305
1.2405607459
1.2423272098
1.2438479132
1.2451321392
1.2461959878
1.2470601531
1.2477479208
1.2482838479
1.2486921656
1.2489956848
1.2492154000
1.2493696597
1.2494738242
1.2495404458
1.2495788486
1.2495951052
1.2500919371
1.1569571412
1.1574685579
1.1572830070
1.1569169037
1.1563797965
1.1556856664
1.1548525459
1.1539019187
1.1528580813
1.1517475273
1.1505981534
1.1494384928
1.1482970844
1.1472017266
1.1461787840
1.1452526838
1.1444453624
1.1437757507
1.1432594544
1.1429084566
1.1427308311
1.1420852793
1.2057589965
1.2044300981
1.2048070114
1.2055592806
1.2066772828
1.2081460866
1.2099443482
1.2120429670
1.2144048859
1.2169847765
1.2197294515
1.2225799188
1.2254735877
1.2283472767
1.2311410384
1.2338011724
1.2362829931
1.2385529127
1.2405889659
1.2423807484
1.2439283676
1.2452405491
1.2463328428
1.2472254247
1.2479410877
1.2485039162
1.2489376826
1.2492647457
1.2495056594
1.2496783520
1.2497977946
1.2498762003
1.2499226205
1.2499429373
1.2504473108
1.1556665511
1.1561687993
1.1559779461
1.1556013902
1.1550489470
1.1543350021
1.1534781285
1.1525004718
1.1514270964
1.1502853432
1.1491039961
1.1479124772
1.1467401767
1.1456156696
1.1445659956
1.1436161404
1.1427884806
1.1421022735
1.1415733523
1.1412138522
1.1410319370
1.1404191778
1.2057200678
1.2044051553
1.2047792249
1.2055260395
1.2066363447
1.2080957609
1.2098836678
1.2119718382
1.2143242006
1.2168964693
1.2196364845
1.2224861819
1.2253837167
1.2282664045
1.2310745035
1.2337542210
1.2362605095
1.2385592044
1.2406276166
1.2424545421
1.2440392757
1.2453897754
1.2465208305
1.2474519149
1.2482051635
1.2488040411
1.2492717314
1.2496300242
1.2498989290
1.2500958635
1.2502353318
1.2503291428
1.2503860256
1.2504116378
1.2509250700
1.1541062091
1.1545963495
1.1543997121
1.1540117565
1.1534425892
1.1527070382
1.1518242691
1.1508171551
1.1497116061
1.1485358972
1.1473197891
1.1460936806
1.1448878941
1.1437318478
1.1426533084
1.1416778547
1.1408283217
1.1401242991
1.1395818440
1.1392132372
1.1390267258
1.1384565843
1.2056435905
1.2043472641
1.2047180501
1.2054585670
1.2065600170
1.2080087007
1.2097848901
1.2118614347
1.2142034782
1.2167680207
1.2195041692
1.2223550014
1.2252595858
1.2281558375
1.2309842444
1.2336908640
1.2362301537
1.2385671778
1.2406782853
1.2425512131
1.2441841834
1.2455841520
1.2467649128
1.2477450353
1.2485458300
1.2491900059
1.2497000479
1.2500970908
1.2504005316
1.2506272267
1.2507911762
1.2509037575
1.2509733599
1.2510054051
1.2515286445
1.1523082970
1.1527831550
1.1525807203
1.1521813429
1.1515954202
1.1508382236
1.1499295160
1.1488929062
1.1477551619
1.1465455073
1.1452946950
1.1440341136
1.1427950246
1.1416076894
1.1405005911
1.1394998821
1.1386288290
1.1379073222
1.1373516107
1.1369740941
1.1367830833
1.1362654005
1.2055166232
1.2042440867
1.2046112696
1.2053448752
1.2064366520
1.2078737112
1.2096373848
1.2117018013
1.2140335468
1.2165911457
1.2193252067
1.2221801571
1.2250961376
1.2280117539
1.2308677321
1.2336098996
1.2361920581
1.2385782725
1.2407436564
1.2426745904
1.2443679342
1.2458293727
1.2470714483
1.2481116055
1.2489701640
1.2496689532
1.2502296759
1.2506727607
1.2510169671
1.2512785853
1.2514711198
1.2516055322
1.2516898887
1.2517293900
1.2522623188
1.1503087754
1.1507650075
1.1505572427
1.1501473695
1.1495460494
1.1487689610
1.1478364187
1.1467727147
1.1456054181
1.1443646428
1.1430820714
1.1417900185
1.1405206187
1.1393049072
1.1381720126
1.1371485879
1.1362582603
1.1355211535
1.1349536498
1.1345682205
1.1343732090
1.1339172497
1.2053252124
1.2040823027
1.2044457120
1.2051720766
1.2062537825
1.2076788811
1.2094299290
1.2114825323
1.2138049400
1.2163574318
1.2190923440
1.2219556519
1.2248887157
1.2278309084
1.2307231835
1.2335110343
1.2361474126
1.2385951189
1.2408277158
1.2428298914
1.2445968374
1.2461326307
1.2474483011
1.2485599383
1.2494867071
1.2502494492
1.2508690319
1.2513651674
1.2517559995
1.2520572972
1.2522821271
1.2524410938
1.2525419941
1.2525898483
1.2531314346
1.1481462989
1.1485805025
1.1483683350
1.1479497980
1.1473357661
1.1465422506
1.1455900231
1.1445039478
1.1433122725
1.1420458695
1.1407372160
1.1394194160
1.1381253420
1.1368866705
1.1357330478
1.1346915067
1.1337859222
1.1330365527
1.1324598290
1.1320682315
1.1318700935
1.1314839144
1.2050552178
1.2038483895
1.2042080329
1.2049271678
1.2059989088
1.2074123736
1.2091515014
1.2111935646
1.2135086845
1.2160591142
1.2187991303
1.2216764392
1.2246337527
1.2276112695
1.2305501394
1.2333953895
1.2360988955
1.2386218864
1.2409360146
1.2430238909
1.2448787661
1.2465026542
1.2479048043
1.2490997401
1.2501053133
1.2509412924
1.2516276883
1.2521835309
1.2526264194
1.2529716984
1.2532321028
1.2534179829
1.2535369551
1.2535939246
1.2541422337
1.1458607951
1.1462696526
1.1460544181
1.1456298530
1.1450069709
1.1442020066
1.1432360498
1.1421343726
1.1409257182
1.1396415231
1.1383148584
1.1369794183
1.1356686181
1.1344145885
1.1332473181
1.1321940560
1.1312787780
1.1305217490
1.1299393437
1.1295439723
1.1293439086
1.1290338079
1.2046939383
1.2035302012
1.2038862841
1.2045985797
1.2056610213
1.2070639121
1.2087927204
1.2108265592
1.2131376146
1.2156903125
1.2184410639
1.2213394711
1.2243297083
1.2273528396
1.2303501559
1.2332660617
1.2360510986
1.2386645817
1.2410758509
1.2432650211
1.2452230256
1.2469495034
1.2484515124
1.2497418052
1.2508367937
1.2517551185
1.2525159543
1.2531377277
1.2536376133
1.2540306769
1.2543294753
1.2545442463
1.2546825467
1.2547492548
1.2553015357
1.1434923075
1.1438727346
1.1436561031
1.1432288024
1.1426018907
1.1417916891
1.1408194289
1.1397105817
1.1384941552
1.1372019041
1.1358672420
1.1345242040
1.1332065068
1.1319465056
1.1307743161
1.1297172060
1.1287990735
1.1280400361
1.1274562865
1.1270600735
1.1268595544
1.1266296979
1.2042299290
1.2031167425
1.2034696976
1.2041759859
1.2052304452
1.2066246700
1.2083457848
1.2103748940
1.2126864139
1.2152471158
1.2180157126
1.2209438413
1.2239772257
1.2270578111
1.2301269493
1.2331282441
1.2360106171
1.2387310943
1.2412562659
1.2435633077
1.2456404351
1.2474845024
1.2491000370
1.2504978114
1.2516926854
1.2527021574
1.2535446261
1.2542380409
1.2547993196
1.2552434393
1.2555829733
1.2558282234
1.2559868342
1.2560637638
1.2566165966
1.1410800929
1.1414293923
1.1412132778
1.1407870119
1.1401615887
1.1393532569
1.1383831860
1.1372768081
1.1360631307
1.1347739460
1.1334427243
1.1321035596
1.1307901967
1.1295349547
1.1283678325
1.1273158887
1.1264027366
1.1256481656
1.1250680397
1.1246743400
1.1244750471
1.1243272929
1.2036535622
1.2025986791
1.2029491998
1.2036508284
1.2046993810
1.2060878292
1.2078050487
1.2098342489
1.2121522014
1.2147281551
1.2175232566
1.2204912853
1.2235795787
1.2267309452
1.2298867075
1.2329894512
1.2359861725
1.2388312039
1.2414879277
1.2439301579
1.2461428931
1.2481197972
1.2498625499
1.2513797546
1.2526846417
1.2537935803
1.2547243069
1.2554944620
1.2561209180
1.2566187940
1.2570009063
1.2572778259
1.2574574531
1.2575449454
1.2580944572
1.1386615531
1.1389775523
1.1387640140
1.1383428363
1.1377248324
1.1369260075
1.1359672517
1.1348737026
1.1336740863
1.1323999361
1.1310844776
1.1297615661
1.1284646861
1.1272258424
1.1260746512
1.1250377089
1.1241381065
1.1233950932
1.1228240302
1.1224365099
1.1222402757
1.1221742306
1.2029581010
1.2019693776
1.2023184434
1.2030173355
1.2040629104
1.2054495669
1.2071679765
1.2092035115
1.2115353704
1.2141353610
1.2169671508
1.2199867417
1.2231431031
1.2263798889
1.2296382521
1.2328595420
1.2359884787
1.2389762941
1.2417826809
1.2443778338
1.2467428076
1.2488676473
1.2507510049
1.2523991208
1.2538235536
1.2550396074
1.2560644978
1.2569157785
1.2576105179
1.2581642406
1.2585902599
1.2588996373
1.2591007108
1.2591989659
1.2597411179
1.1362714749
1.1365526314
1.1363437754
1.1359318291
1.1353273063
1.1345457968
1.1336076927
1.1325375830
1.1313636338
1.1301168263
1.1288298445
1.1275360116
1.1262682624
1.1250580042
1.1239341895
1.1229226726
1.1220457463
1.1213218629
1.1207656660
1.1203882169
1.1201969719
1.1202102425
1.2021389780
1.2012241602
1.2015730709
1.2022718248
1.2033183614
1.2047084985
1.2064346680
1.2084843803
1.2108392541
1.2134736726
1.2163538707
1.2194380857
1.2226769331
1.2260148395
1.2293926550
1.2327502437
1.2360297280
1.2391788057
1.2421530451
1.2449187545
1.2474523473
1.2497397298
1.2517763990
1.2535661325
1.2551187912
1.2564487276
1.2575728234
1.2585087865
1.2592741684
1.2598851779
1.2603558980
1.2606981139
1.2609207870
1.2610298625
1.2615607813
1.1339416806
1.1341871575
1.1339850435
1.1335863794
1.1330012670
1.1322447187
1.1313364236
1.1303001861
1.1291633547
1.1279560894
1.1267102606
1.1254583877
1.1242325843
1.1230633817
1.1219787777
1.1210035728
1.1201589317
1.1194621818
1.1189269667
1.1185636393
1.1183793489
1.1184679340
1.2011937013
1.2003601888
1.2007105927
1.2014125981
1.2024652460
1.2038656769
1.2056079233
1.2076814784
1.2100702600
1.2127511609
1.2156929412
1.2188560739
1.2221927831
1.2256482059
1.2291627533
1.2326745923
1.2361229581
1.2394516968
1.2426116480
1.2455646989
1.2482823571
1.2507459562
1.2529476101
1.2548885321
1.2565769808
1.2580264487
1.2592537398
1.2602769901
1.2611145316
1.2617835650
1.2622992140
1.2626742251
1.2629183680
1.2630381744
1.2635545168
1.1317005982
1.1319102929
1.1317168523
1.1313352683
1.1307751324
1.1300507375
1.1291808918
1.1281884133
1.1270996147
1.1259436085
1.1247512240
1.1235539474
1.1223828333
1.1212672785
1.1202340294
1.1193064818
1.1185042617
1.1178431295
1.1173353266
1.1169902561
1.1168148075
1.1169736042
1.2001219428
1.1993765671
1.1997304415
1.2004399661
1.2015052952
1.2029246553
1.2046933223
1.2068024229
1.2092378955
1.2119789415
1.2149967550
1.2182539956
1.2217044786
1.2252940128
1.2289624701
1.2326463735
1.2362814609
1.2398073140
1.2431697927
1.2463256789
1.2492413452
1.2518932901
1.2542700793
1.2563703081
1.2582006239
1.2597739313
1.2611071616
1.2622192199
1.2631295175
1.2638565511
1.2644167650
1.2648240886
1.2650892800
1.2652195778
1.2657189066
1.1295730275
1.1297475628
1.1295645295
1.1292034376
1.1286732898
1.1279875473
1.1271639997
1.1262243247
1.1251936373
1.1240998382
1.1229725531
1.1218420697
1.1207382019
1.1196889911
1.1187196404
1.1178517413
1.1171028508
1.1164865295
1.1160129926
1.1156903064
1.1155252646
1.1157486310
1.1989241078
1.1982729615
1.1986324796
1.1993547397
1.2004410305
1.2018901831
1.2036980397
1.2058567278
1.2083537112
1.2111701859
1.2142796131
1.2176467898
1.2212271335
1.2249675460
1.2288067405
1.2326792062
1.2365174439
1.2402561066
1.2438360292
1.2472084398
1.2503340186
1.2531846393
1.2557447310
1.2580104273
1.2599869419
1.2616867588
1.2631272847
1.2643284518
1.2653110997
1.2660952955
1.2666990754
1.2671377707
1.2674232858
1.2675636780
1.2680447922
1.1275803128
1.1277209984
1.1275498529
1.1272121709
1.1267163133
1.1260748354
1.1253044196
1.1244255107
1.1234619348
1.1224402960
1.1213889411
1.1203368838
1.1193126021
1.1183426314
1.1174503669
1.1166551457
1.1159717591
1.1154106201
1.1149788675
1.1146824898
1.1145284821
1.1148108438
1.1976002919
1.1970487251
1.1974157410
1.1981567724
1.1992743117
1.2007668810
1.2026297087
1.2048548923
1.2074306743
1.2103397936
1.2135579988
1.2170517011
1.2207782051
1.2246846140
1.2287095457
1.2327849956
1.2368401287
1.2408050086
1.2446150808
1.2482152780
1.2515605954
1.2546171799
1.2573662635
1.2598012401
1.2619262067
1.2637534173
1.2653010120
1.2665902839
1.2676437572
1.2684834070
1.2691290843
1.2695977245
1.2699025250
1.2700524514
1.2705156322
1.1257404245
1.1258491821
1.1256911097
1.1253791808
1.1249210898
1.1243284549
1.1236168182
1.1228053678
1.1219166315
1.1209759271
1.1200103558
1.1190477041
1.1181151490
1.1172376906
1.1164367322
1.1157288890
1.1151252790
1.1146317186
1.1142504066
1.1139836208
1.1138387485
1.1141753036
1.1961496609
1.1957022777
1.1960767366
1.1968428877
1.1980044283
1.1995577116
1.2014952857
1.2038076155
1.2064826742
1.2095040782
1.2128489916
1.2164861030
1.2203738991
1.2244601575
1.2286833264
1.2329735951
1.2372565232
1.2414574621
1.2455076173
1.2493437554
1.2529138184
1.2561806659
1.2591213574
1.2617270117
1.2640004217
1.2659540367
1.2676067486
1.2689816564
1.2701033049
1.2709957929
1.2716810348
1.2721777134
1.2725004464
1.2726591883
1.2731063146
1.1240680652
1.1241473385
1.1240031982
1.1237187310
1.1233009700
1.1227606078
1.1221120713
1.1213733406
1.1205657241
1.1197133712
1.1188423028
1.1179792857
1.1171504198
1.1163793506
1.1156854989
1.1150823765
1.1145763188
1.1141663636
1.1138463676
1.1136110236
1.1134668103
1.1138544069
1.1945709312
1.1942315545
1.1946070539
1.1954039491
1.1966256399
1.1982620084
1.2002991352
1.2027233649
1.2055210422
1.2086760788
1.2121671356
1.2159647676
1.2200290459
1.2243086454
1.2287413608
1.2332555815
1.2377736880
1.2422163678
1.2465084392
1.2505813895
1.2543779894
1.2578556856
1.2609876532
1.2637626457
1.2661824888
1.2682590467
1.2700132346
1.2714699462
1.2726560374
1.2735979390
1.2743197810
1.2748421564
1.2751811864
1.2753478800
1.2757823498
1.1225750987
1.1226277568
1.1224980581
1.1222420801
1.1218662271
1.1213803186
1.1207977462
1.1201353997
1.1194135353
1.1186553655
1.1178861460
1.1171320302
1.1164185325
1.1157684701
1.1151996937
1.1147225672
1.1143375527
1.1140338393
1.1137907965
1.1135861831
1.1134171513
1.1138555819
1.1928653589
1.1926378148
1.1929909467
1.1938228631
1.1951273728
1.1968776040
1.1990463943
1.2016124972
1.2045592334
1.2078705012
1.2115266316
1.2155003654
1.2197536845
1.2242363396
1.2288859638
1.2336293632
1.2383857214
1.2430714289
1.2476057231
1.2519140145
1.2559335689
1.2596175296
1.2629355050
1.2658738813
1.2684337095
1.2706279925
1.2724783893
1.2740119495
1.2752578770
1.2762451130
1.2770001469
1.2775455565
1.2778990524
1.2780727441
1.2784991815
1.1212708657
1.1213000873
1.1211849748
1.1209578003
1.1206243939
1.1201937885
1.1196784642
1.1190943974
1.1184610358
1.1178009914
1.1171392199
1.1165018941
1.1159147810
1.1154009198
1.1149777281
1.1146532844
1.1144218425
1.1142591720
1.1141197707
1.1139422774
1.1136789662
1.1141732345
1.1910439497
1.1909337792
1.1911948559
1.1920647686
1.1934882276
1.1953974253
1.1977406478
1.2004850690
1.2036103724
1.2071010607
1.2109400398
1.2151030737
1.2195547128
1.2242462924
1.2291156750
1.2340884092
1.2390809318
1.2440056336
1.2487762587
1.2533126402
1.2575471842
1.2614287562
1.2649238439
1.2680169737
1.2707086360
1.2730123712
1.2749515251
1.2765552984
1.2778553439
1.2788831410
1.2796675350
1.2802331167
1.2805991821
1.2807789468
1.2812027288
1.1201624078
1.1201715715
1.1200708139
1.1198720188
1.1195805116
1.1192046469
1.1187561481
1.1182502923
1.1177060141
1.1171457358
1.1165946998
1.1160799436
1.1156287100
1.1152659880
1.1150110990
1.1148726611
1.1148409758
1.1148767324
1.1148948184
1.1147447236
1.1142043017
1.1147688497
1.1891508380
1.1891692750
1.1891439662
1.1900614159
1.1916709120
1.1938096761
1.1963855806
1.1993523167
1.2026880762
1.2063806465
1.2104176785
1.2147795015
1.2194342895
1.2243356811
1.2294223147
1.2346189295
1.2398396594
1.2449933736
1.2499887532
1.2547405840
1.2591769889
1.2632430600
1.2669024802
1.2701382287
1.2729505358
1.2753536997
1.2773727250
1.2790390518
1.2803868107
1.2814499493
1.2822596328
1.2828423975
1.2832190825
1.2834039881
1.2838305076
1.1192549265
1.1192475042
1.1191604874
1.1189888901
1.1187376092
1.1184144390
1.1180305099
1.1176006234
1.1171435047
1.1166818129
1.1162417020
1.1158520264
1.1155430021
1.1153440040
1.1152802803
1.1153674067
1.1156009585
1.1159363894
1.1162432207
1.1161931577
1.1149703666
1.1156288304
1.1873281225
1.1875013830
1.1866587779
1.1876811215
1.1896181320
1.1921024867
1.1949903718
1.1982304740
1.2018086252
1.2057222960
1.2099678595
1.2145325541
1.2193895576
1.2244956680
1.2297908947
1.2351996807
1.2406343591
1.2460008274
1.2512034095
1.2561525599
1.2607726701
1.2650056226
1.2688127777
1.2721759293
1.2750952551
1.2775859642
1.2796747391
1.2813951970
1.2827838104
1.2838768796
1.2847077368
1.2853047344
1.2856901548
1.2858793124
1.2863131215
1.1185521226
1.1185315651
1.1184572939
1.1183109531
1.1180970867
1.1178230417
1.1174995082
1.1171410107
1.1167663231
1.1163986915
1.1160656897
1.1157987908
1.1156325916
1.1156036025
1.1157488210
1.1161037118
1.1167008130
1.1175709344
1.1187534797
1.1203357650
1.1225872119
1.1274599272
1.1425153736
1.1444808998
1.1739643746
1.1786587644
1.1814428462
1.1842315132
1.1871491969
1.1902524192
1.1935742458
1.1971451456
1.2009931246
1.2051398516
1.2095968191
1.2143611345
1.2194124098
1.2247113648
1.2301998902
1.2358025904
1.2414305020
1.2469871227
1.2523735069
1.2574965398
1.2622773454
1.2666553657
1.2705901630
1.2740627258
1.2770733996
1.2796383509
1.2817858669
1.2835515687
1.2849740459
1.2860916980
1.2869397817
1.2875482601
1.2879406906
1.2881332900
1.2885771827
1.1180564323
1.1180260715
1.1179631800
1.1178394121
1.1176590268
1.1174290224
1.1171597728
1.1168656692
1.1165656937
1.1162838476
1.1160492955
1.1158962916
1.1158639422
1.1159959280
1.1163401650
1.1169491211
1.1178819713
1.1192109913
1.1210393584
1.1235409964
1.1270535357
1.1325394274
1.1422197340
1.1440782513
1.1633919313
1.1712928846
1.1765915110
1.1808885076
1.1847511179
1.1884832854
1.1922511967
1.1961587868
1.2002762666
1.2046507298
1.2093097483
1.2142608241
1.2194902618
1.2249628494
1.2306225311
1.2363943521
1.2421884755
1.2479066091
1.2534479870
1.2587163880
1.2636303816
1.2681278254
1.2721671082
1.2757287675
1.2788134791
1.2814383448
1.2836330746
1.2854349993
1.2868844829
1.2880216620
1.2888833796
1.2895009169
1.2898988795
1.2900942336
1.2905484219
1.1177693979
1.1177323629
1.1176791373
1.1175745575
1.1174226569
1.1172301643
1.1170072275
1.1167681873
1.1165322868
1.1163242712
1.1161747630
1.1161204457
1.1162042165
1.1164753314
1.1169896220
1.1178107196
1.1190115510
1.1206799648
1.1229297665
1.1259212785
1.1298945273
1.1352705148
1.1426482101
1.1481310714
1.1598318808
1.1673962111
1.1733412367
1.1783360098
1.1827942369
1.1869980025
1.1911347840
1.1953354004
1.1996926478
1.2042705868
1.2091089579
1.2142237169
1.2196068041
1.2252265040
1.2310285898
1.2369386327
1.2428662968
1.2487120515
1.2543741321
1.2597545371
1.2647704537
1.2693585819
1.2734767037
1.2771053054
1.2802455288
1.2829153158
1.2851455150
1.2869747631
1.2884447382
1.2895968482
1.2904690880
1.2910936910
1.2914960216
1.2916935935
1.2921551936
1.1176919362
1.1176510754
1.1176054965
1.1175160986
1.1173867401
1.1172239443
1.1170376922
1.1168423046
1.1166572552
1.1165078976
1.1164260002
1.1164500711
1.1166256125
1.1170054105
1.1176502014
1.1186294726
1.1200211472
1.1219147543
1.1244153527
1.1276497055
1.1317703272
1.1369566907
1.1433398683
1.1495684178
1.1581343340
1.1651684959
1.1712266757
1.1765363239
1.1813464646
1.1858721569
1.1902834655
1.1947135728
1.1992638432
1.2040073742
1.2089915507
1.2142380740
1.2197428558
1.2254766717
1.2313866100
1.2373986819
1.2434223607
1.2493575443
1.2551018031
1.2605576357
1.2656412068
1.2702885546
1.2744576697
1.2781295271
1.2813058523
1.2840052326
1.2862592624
1.2881073651
1.2895919604
1.2907551279
1.2916354805
1.2922657532
1.2926717142
1.2928711769
1.2933342198
1.1178245414
1.1177823666
1.1177421590
1.1176634200
1.1175498790
1.1174079069
1.1172473589
1.1170825315
1.1169330449
1.1168246487
1.1167898489
1.1168682884
1.1171070151
1.1175607017
1.1182919942
1.1193722369
1.1208811974
1.1229040731
1.1255337146
1.1288680986
1.1330034839
1.1380142465
1.1438945360
1.1500993757
1.1573073261
1.1639488288
1.1699614952
1.1754005080
1.1804043924
1.1851300185
1.1897238606
1.1943130613
1.1990003157
1.2038624986
1.2089508786
1.2142902919
1.2198787939
1.2256884582
1.2316670086
1.2377407018
1.2438190869
1.2498021702
1.2555878039
1.2610792575
1.2661936106
1.2708674192
1.2750591534
1.2787503172
1.2819431941
1.2846568294
1.2869231168
1.2887816668
1.2902750120
1.2914453652
1.2923314207
1.2929659647
1.2933748111
1.2935758179
1.2940303651
1.1181674460
1.1181260945
1.1180887867
1.1180157931
1.1179107611
1.1177799603
1.1176331543
1.1174845974
1.1173539495
1.1172671178
1.1172569203
1.1173634711
1.1176344105
1.1181250159
1.1188982571
1.1200248557
1.1215839943
1.1236586227
1.1263320404
1.1296854355
1.1337872604
1.1386711970
1.1442953337
1.1503651566
1.1570280133
1.1634346252
1.1693852490
1.1748640043
1.1799536009
1.1847777911
1.1894670467
1.1941423992
1.1989053385
1.2038333500
1.2089787532
1.2143672092
1.2199970908
1.2258405249
1.2318450974
1.2379370430
1.2440262080
1.2500133417