<VTKFile type="UnstructuredGrid" version="0.1">
	<UnstructuredGrid>
		<Piece NumberOfPoints="13548" NumberOfCells="3387">
			<CellData>
				<DataArray type="Int32" Name="ghost" NumberOfComponents="1" Format="ascii">
1
1
1
1
1
1
1
1
1
1
1
1
1
1
1
1
1
1
1
1
1
1
1
1
1
1
1
1
1
1
1
1
1
1
1
1
1
1
1
1
1
1
1
1
1
1
1
1
1
1
1
1
1
1
1
1
1
1
0
0
0
0
0
0
0
0
0
0
0
0
0
0
0
0
0
0
0
0
1
1
0
0
0
0
0
0
0
0
0
0
0
0
0
0
0
0
0
0
0
0
0
0
0
0
0
0
0
0
0
0
0
0
0
1
1
0
0
0
0
0
0
0
0
0
0
0
0
0
0
0
0
0
0
0
0
1
1
0
0
0
0
0
0
0
0
0
0
0
0
0
0
0
0
0
0
0
0
0
0
0
0
0
0
0
0
0
0
0
0
0
1
1
0
0
0
0
0
0
0
0
0
0
0
0
0
0
0
0
0
0
0
0
1
1
0
0
0
0
0
0
0
0
0
0
0
0
0
0
0
0
0
0
0
0
0
0
0
0
0
0
0
0
0
0
0
0
0
1
1
0
0
0
0
0
0
0
0
0
0
0
0
0
0
0
0
0
0
0
0
1
1
0
0
0
0
0
0
0
0
0
0
0
0
0
0
0
0
0
0
0
0
0
0
0
0
0
0
0
0
0
0
0
0
0
1
1
0
0
0
0
0
0
0
0
0
0
0
0
0
0
0
0
0
0
0
0
1
1
0
0
0
0
0
0
0
0
0
0
0
0
0
0
0
0
0
0
0
0
0
0
0
0
0
0
0
0
0
0
0
0
0
1
1
0
0
0
0
0
0
0
0
0
0
0
0
0
0
0
0
0
0
0
0
1
1
0
0
0
0
0
0
0
0
0
0
0
0
0
0
0
0
0
0
0
0
0
0
0
0
0
0
0
0
0
0
0
0
0
1
1
0
0
0
0
0
0
0
0
0
0
0
0
0
0
0
0
0
0
0
0
1
1
0
0
0
0
0
0
0
0
0
0
0
0
0
0
0
0
0
0
0
0
0
0
0
0
0
0
0
0
0
0
0
0
0
1
1
0
0
0
0
0
0
0
0
0
0
0
0
0
0
0
0
0
0
0
0
1
1
0
0
0
0
0
0
0
0
0
0
0
0
0
0
0
0
0
0
0
0
0
0
0
0
0
0
0
0
0
0
0
0
0
1
1
0
0
0
0
0
0
0
0
0
0
0
0
0
0
0
0
0
0
0
0
1
1
0
0
0
0
0
0
0
0
0
0
0
0
0
0
0
0
0
0
0
0
0
0
0
0
0
0
0
0
0
0
0
0
0
1
1
0
0
0
0
0
0
0
0
0
0
0
0
0
0
0
0
0
0
0
0
1
1
0
0
0
0
0
0
0
0
0
0
0
0
0
0
0
0
0
0
0
0
0
0
0
0
0
0
0
0
0
0
0
0
0
1
1
0
0
0
0
0
0
0
0
0
0
0
0
0
0
0
0
0
0
0
0
1
1
0
0
0
0
0
0
0
0
0
0
0
0
0
0
0
0
0
0
0
0
0
0
0
0
0
0
0
0
0
0
0
0
0
1
1
0
0
0
0
0
0
0
0
0
0
0
0
0
0
0
0
0
0
0
0
1
1
0
0
0
0
0
0
0
0
0
0
0
0
0
0
0
0
0
0
0
0
0
0
0
0
0
0
0
0
0
0
0
0
0
1
1
0
0
0
0
0
0
0
0
0
0
0
0
0
0
0
0
0
0
0
0
1
1
0
0
0
0
0
0
0
0
0
0
0
0
0
0
0
0
0
0
0
0
0
0
0
0
0
0
0
0
0
0
0
0
0
1
1
0
0
0
0
0
0
0
0
0
0
0
0
0
0
0
0
0
0
0
0
1
1
0
0
0
0
0
0
0
0
0
0
0
0
0
0
0
0
0
0
0
0
0
0
0
0
0
0
0
0
0
0
0
0
0
1
1
0
0
0
0
0
0
0
0
0
0
0
0
0
0
0
0
0
0
0
0
1
1
0
0
0
0
0
0
0
0
0
0
0
0
0
0
0
0
0
0
0
0
0
0
0
0
0
0
0
0
0
0
0
0
0
1
1
0
0
0
0
0
0
0
0
0
0
0
0
0
0
0
0
0
0
0
0
1
1
0
0
0
0
0
0
0
0
0
0
0
0
0
0
0
0
0
0
0
0
0
0
0
0
0
0
0
0
0
0
0
0
0
1
1
0
0
0
0
0
0
0
0
0
0
0
0
0
0
0
0
0
0
0
0
1
1
0
0
0
0
0
0
0
0
0
0
0
0
0
0
0
0
0
0
0
0
0
0
0
0
0
0
0
0
0
0
0
0
0
1
1
0
0
0
0
0
0
0
0
0
0
0
0
0
0
0
0
0
0
0
0
1
1
0
0
0
0
0
0
0
0
0
0
0
0
0
0
0
0
0
0
0
0
0
0
0
0
0
0
0
0
0
0
0
0
0
1
1
0
0
0
0
0
0
0
0
0
0
0
0
0
0
0
0
0
0
0
0
1
1
0
0
0
0
0
0
0
0
0
0
0
0
0
0
0
0
0
0
0
0
0
0
0
0
0
0
0
0
0
0
0
0
0
1
1
0
0
0
0
0
0
0
0
0
0
0
0
0
0
0
0
0
0
0
0
1
1
0
0
0
0
0
0
0
0
0
0
0
0
0
0
0
0
0
0
0
0
0
0
0
0
0
0
0
0
0
0
0
0
0
1
1
0
0
0
0
0
0
0
0
0
0
0
0
0
0
0
0
0
0
0
0
1
1
0
0
0
0
0
0
0
0
0
0
0
0
0
0
0
0
0
0
0
0
0
0
0
0
0
0
0
0
0
0
0
0
0
1
1
0
0
0
0
0
0
0
0
0
0
0
0
0
0
0
0
0
0
0
0
1
1
0
0
0
0
0
0
0
0
0
0
0
0
0
0
0
0
0
0
0
0
0
0
0
0
0
0
0
0
0
0
0
0
0
1
1
0
0
0
0
0
0
0
0
0
0
0
0
0
0
0
0
0
0
0
0
1
1
0
0
0
0
0
0
0
0
0
0
0
0
0
0
0
0
0
0
0
0
0
0
0
0
0
0
0
0
0
0
0
0
0
1
1
0
0
0
0
0
0
0
0
0
0
0
0
0
0
0
0
0
0
0
0
1
1
0
0
0
0
0
0
0
0
0
0
0
0
0
0
0
0
0
0
0
0
0
0
0
0
0
0
0
0
0
0
0
0
0
1
1
0
0
0
0
0
0
0
0
0
0
0
0
0
0
0
0
0
0
0
0
0
1
1
0
0
0
0
0
0
0
0
0
0
0
0
0
0
0
0
0
0
0
0
0
0
0
0
0
0
0
0
0
0
0
0
0
0
1
1
0
0
0
0
0
0
0
0
0
0
0
0
0
0
0
0
0
0
0
0
0
0
0
0
0
0
0
0
0
0
0
0
0
0
0
0
0
0
0
0
0
0
0
0
0
0
0
0
0
0
0
0
0
0
0
0
0
1
1
0
0
0
0
0
0
0
0
0
0
0
0
0
0
0
0
0
0
0
0
0
0
0
0
0
0
0
0
0
0
0
0
0
0
0
0
0
0
0
0
0
0
0
0
0
0
0
0
0
0
0
0
0
0
0
0
0
1
1
0
0
0
0
0
0
0
0
0
0
0
0
0
0
0
0
0
0
0
0
0
0
0
0
0
0
0
0
0
0
0
0
0
0
0
0
0
0
0
0
0
0
0
0
0
0
0
0
0
0
0
0
0
0
0
0
0
1
1
0
0
0
0
0
0
0
0
0
0
0
0
0
0
0
0
0
0
0
0
0
0
0
0
0
0
0
0
0
0
0
0
0
0
0
0
0
0
0
0
0
0
0
0
0
0
0
0
0
0
0
0
0
0
0
0
0
1
1
0
0
0
0
0
0
0
0
0
0
0
0
0
0
0
0
0
0
0
0
0
0
0
0
0
0
0
0
0
0
0
0
0
0
0
0
0
0
0
0
0
0
0
0
0
0
0
0
0
0
0
0
0
0
0
0
0
1
1
0
0
0
0
0
0
0
0
0
0
0
0
0
0
0
0
0
0
0
0
0
0
0
0
0
0
0
0
0
0
0
0
0
0
0
0
0
0
0
0
0
0
0
0
0
0
0
0
0
0
0
0
0
0
0
0
0
1
1
0
0
0
0
0
0
0
0
0
0
0
0
0
0
0
0
0
0
0
0
0
0
0
0
0
0
0
0
0
0
0
0
0
0
0
0
0
0
0
0
0
0
0
0
0
0
0
0
0
0
0
0
0
0
0
0
0
1
1
0
0
0
0
0
0
0
0
0
0
0
0
0
0
0
0
0
0
0
0
0
0
0
0
0
0
0
0
0
0
0
0
0
0
0
0
0
0
0
0
0
0
0
0
0
0
0
0
0
0
0
0
0
0
0
0
0
1
1
0
0
0
0
0
0
0
0
0
0
0
0
0
0
0
0
0
0
0
0
0
0
0
0
0
0
0
0
0
0
0
0
0
0
0
0
0
0
0
0
0
0
0
0
0
0
0
0
0
0
0
0
0
0
0
0
0
1
1
0
0
0
0
0
0
0
0
0
0
0
0
0
0
0
0
0
0
0
0
0
0
0
0
0
0
0
0
0
0
0
0
0
0
0
0
0
0
0
0
0
0
0
0
0
0
0
0
0
0
0
0
0
0
0
0
0
1
1
0
0
0
0
0
0
0
0
0
0
0
0
0
0
0
0
0
0
0
0
0
1
1
0
0
0
0
0
0
0
0
0
0
0
0
0
0
0
0
0
0
0
0
0
0
0
0
0
0
0
0
0
0
0
0
0
0
1
1
0
0
0
0
0
0
0
0
0
0
0
0
0
0
0
0
0
0
0
0
1
1
0
0
0
0
0
0
0
0
0
0
0
0
0
0
0
0
0
0
0
0
0
0
0
0
0
0
0
0
0
0
0
0
0
1
1
0
0
0
0
0
0
0
0
0
0
0
0
0
0
0
0
0
0
0
0
1
1
0
0
0
0
0
0
0
0
0
0
0
0
0
0
0
0
0
0
0
0
0
0
0
0
0
0
0
0
0
0
0
0
0
1
1
0
0
0
0
0
0
0
0
0
0
0
0
0
0
0
0
0
0
0
0
1
1
0
0
0
0
0
0
0
0
0
0
0
0
0
0
0
0
0
0
0
0
0
0
0
0
0
0
0
0
0
0
0
0
0
1
1
0
0
0
0
0
0
0
0
0
0
0
0
0
0
0
0
0
0
0
0
1
1
0
0
0
0
0
0
0
0
0
0
0
0
0
0
0
0
0
0
0
0
0
0
0
0
0
0
0
0
0
0
0
0
0
1
1
0
0
0
0
0
0
0
0
0
0
0
0
0
0
0
0
0
0
0
0
1
1
0
0
0
0
0
0
0
0
0
0
0
0
0
0
0
0
0
0
0
0
0
0
0
0
0
0
0
0
0
0
0
0
0
1
1
0
0
0
0
0
0
0
0
0
0
0
0
0
0
0
0
0
0
0
0
1
1
0
0
0
0
0
0
0
0
0
0
0
0
0
0
0
0
0
0
0
0
0
0
0
0
0
0
0
0
0
0
0
0
0
1
1
0
0
0
0
0
0
0
0
0
0
0
0
0
0
0
0
0
0
0
0
1
1
0
0
0
0
0
0
0
0
0
0
0
0
0
0
0
0
0
0
0
0
0
0
0
0
0
0
0
0
0
0
0
0
0
1
1
0
0
0
0
0
0
0
0
0
0
0
0
0
0
0
0
0
0
0
0
1
1
0
0
0
0
0
0
0
0
0
0
0
0
0
0
0
0
0
0
0
0
0
0
0
0
0
0
0
0
0
0
0
0
0
1
1
0
0
0
0
0
0
0
0
0
0
0
0
0
0
0
0
0
0
0
0
1
1
0
0
0
0
0
0
0
0
0
0
0
0
0
0
0
0
0
0
0
0
0
0
0
0
0
0
0
0
0
0
0
0
0
1
1
0
0
0
0
0
0
0
0
0
0
0
0
0
0
0
0
0
0
0
0
1
1
0
0
0
0
0
0
0
0
0
0
0
0
0
0
0
0
0
0
0
0
0
0
0
0
0
0
0
0
0
0
0
0
0
1
1
0
0
0
0
0
0
0
0
0
0
0
0
0
0
0
0
0
0
0
0
1
1
0
0
0
0
0
0
0
0
0
0
0
0
0
0
0
0
0
0
0
0
0
0
0
0
0
0
0
0
0
0
0
0
0
1
1
0
0
0
0
0
0
0
0
0
0
0
0
0
0
0
0
0
0
0
0
1
1
0
0
0
0
0
0
0
0
0
0
0
0
0
0
0
0
0
0
0
0
0
0
0
0
0
0
0
0
0
0
0
0
0
1
1
0
0
0
0
0
0
0
0
0
0
0
0
0
0
0
0
0
0
0
0
1
1
0
0
0
0
0
0
0
0
0
0
0
0
0
0
0
0
0
0
0
0
0
0
0
0
0
0
0
0
0
0
0
0
0
1
1
0
0
0
0
0
0
0
0
0
0
0
0
0
0
0
0
0
0
0
0
1
1
0
0
0
0
0
0
0
0
0
0
0
0
0
0
0
0
0
0
0
0
0
0
0
0
0
0
0
0
0
0
0
0
0
1
1
0
0
0
0
0
0
0
0
0
0
0
0
0
0
0
0
0
0
0
0
1
1
0
0
0
0
0
0
0
0
0
0
0
0
0
0
0
0
0
0
0
0
0
0
0
0
0
0
0
0
0
0
0
0
0
1
1
0
0
0
0
0
0
0
0
0
0
0
0
0
0
0
0
0
0
0
0
1
1
0
0
0
0
0
0
0
0
0
0
0
0
0
0
0
0
0
0
0
0
0
0
0
0
0
0
0
0
0
0
0
0
0
1
1
0
0
0
0
0
0
0
0
0
0
0
0
0
0
0
0
0
0
0
0
1
1
0
0
0
0
0
0
0
0
0
0
0
0
0
0
0
0
0
0
0
0
0
0
0
0
0
0
0
0
0
0
0
0
0
1
1
0
0
0
0
0
0
0
0
0
0
0
0
0
0
0
0
0
0
0
0
1
1
0
0
0
0
0
0
0
0
0
0
0
0
0
0
0
0
0
0
0
0
0
0
0
0
0
0
0
0
0
0
0
0
0
1
1
0
0
0
0
0
0
0
0
0
0
0
0
0
0
0
0
0
0
0
0
1
1
0
0
0
0
0
0
0
0
0
0
0
0
0
0
0
0
0
0
0
0
0
0
0
0
0
0
0
0
0
0
0
0
0
1
1
0
0
0
0
0
0
0
0
0
0
0
0
0
0
0
0
0
0
0
0
1
1
0
0
0
0
0
0
0
0
0
0
0
0
0
0
0
0
0
0
0
0
0
0
0
0
0
0
0
0
0
0
0
0
0
1
1
0
0
0
0
0
0
0
0
0
0
0
0
0
0
0
0
0
0
0
0
1
1
0
0
0
0
0
0
0
0
0
0
0
0
0
0
0
0
0
0
0
0
0
0
0
0
0
0
0
0
0
0
0
0
0
1
1
1
1
1
1
1
1
1
1
1
1
1
1
1
1
1
1
1
1
1
1
1
1
1
1
1
1
1
1
1
1
1
1
1
1
1
1
1
1
1
1
1
1
1
1
1
1
1
1
1
1
1
1
1
1
1
1
				</DataArray>
				<DataArray type="Float64" Name="h" NumberOfComponents="1" Format="ascii">
1.1482490713
1.1495260584
1.1494346755
1.1492558810
1.1489957400
1.1486629085
1.1482681561
1.1478236896
1.1473426879
1.1468387558
1.1463253635
1.1458154839
1.1453212802
1.1448538853
1.1444232353
1.1440379987
1.1437056224
1.1434322456
1.1432227224
1.1430807686
1.1430088467
1.1430088467
1.2613502276
1.2609200140
1.2606513059
1.2601205423
1.2593297790
1.2582824498
1.2569835066
1.2554390869
1.2536569101
1.2516463999
1.2494183158
1.2469849471
1.2443602368
1.2415595198
1.2385996941
1.2354995862
1.2322800255
1.2289641180
1.2255777971
1.2221499554
1.2187123483
1.2152996681
1.2119491542
1.2086996579
1.2055909710
1.2026628256
1.1999534387
1.1974986611
1.1953312389
1.1934797337
1.1919682076
1.1908162316
1.1900383792
1.1896442938
1.1896442938
1.1495260584
1.1508306231
1.1507329088
1.1505416030
1.1502631436
1.1499067363
1.1494838618
1.1490075722
1.1484919843
1.1479516956
1.1474011829
1.1468543974
1.1463244254
1.1458232404
1.1453615193
1.1449485672
1.1445923573
1.1442994489
1.1440750196
1.1439230152
1.1438460447
1.1430088467
1.2609200140
1.2603870953
1.2601240755
1.2596040822
1.2588286821
1.2578006086
1.2565239429
1.2550038476
1.2532470080
1.2512618151
1.2490580687
1.2466472049
1.2440424480
1.2412585660
1.2383120163
1.2352212801
1.2320069032
1.2286917236
1.2253014022
1.2218645669
1.2184127483
1.2149805088
1.2116051163
1.2083256944
1.2051826255
1.2022165783
1.1994670519
1.1969714830
1.1947644010
1.1928762409
1.1913328985
1.1901555822
1.1893602014
1.1889573391
1.1896442938
1.1498010413
1.1511050644
1.1510077304
1.1508171673
1.1505397630
1.1501846566
1.1497632535
1.1492885277
1.1487745209
1.1482357627
1.1476866712
1.1471411516
1.1466122590
1.1461119514
1.1456509059
1.1452384418
1.1448825584
1.1445898481
1.1443655241
1.1442135654
1.1441366067
1.1433044424
1.2605173494
1.2599890683
1.2597285099
1.2592133892
1.2584452396
1.2574267322
1.2561618473
1.2546555991
1.2529144700
1.2509465905
1.2487614481
1.2463701227
1.2437854508
1.2410218026
1.2380952471
1.2350239070
1.2318280191
1.2285301758
1.2251558601
1.2217335931
1.2182948770
1.2148743115
1.2115092398
1.2082388908
1.2051037636
1.2021446407
1.1994011223
1.1969107268
1.1947080417
1.1928235386
1.1912831318
1.1901080339
1.1893141510
1.1889120608
1.1895900910
1.1503500280
1.1516529606
1.1515563460
1.1513671911
1.1510917892
1.1507391531
1.1503205422
1.1498487771
1.1493377513
1.1488018595
1.1482554050
1.1477122046
1.1471852552
1.1466864892
1.1462265899
1.1458149109
1.1454595096
1.1451670507
1.1449428232
1.1447908773
1.1447139021
1.1438919535
1.2597176196
1.2591978806
1.2589422738
1.2584369465
1.2576833497
1.2566840103
1.2554426840
1.2539640686
1.2522542248
1.2503207535
1.2481725159
1.2458198848
1.2432749334
1.2405512517
1.2376641521
1.2346310597
1.2314716120
1.2282079281
1.2248651542
1.2214716158
1.2180587750
1.2146612921
1.2113166520
1.2080642832
1.2049449088
1.2019995307
1.1992679452
1.1967878292
1.1945938829
1.1927166493
1.1911820790
1.1900113919
1.1892204876
1.1888199326
1.1894803793
1.1511681383
1.1524690686
1.1523734002
1.1521861004
1.1519133346
1.1515639400
1.1511489696
1.1506810225
1.1501737779
1.1496414370
1.1490981423
1.1485575938
1.1480327195
1.1475354347
1.1470764549
1.1466652093
1.1463098656
1.1460172193
1.1457926932
1.1456404610
1.1455633051
1.1447575916
1.2585426339
1.2580348314
1.2577864317
1.2572953523
1.2565629214
1.2555914514
1.2543843673
1.2529459034
1.2512815095
1.2493980210
1.2473033958
1.2450069873
1.2425197684
1.2398542050
1.2370245168
1.2340471202
1.2309407822
1.2277269322
1.2244302264
1.2210787032
1.2177037627
1.2143401364
1.2110255057
1.2077995795
1.2047033993
1.2017782798
1.1990642982
1.1965993583
1.1944183217
1.1925518329
1.1910258927
1.1898617299
1.1890752325
1.1886769499
1.1893116274
1.1522481099
1.1535456029
1.1534509518
1.1532656491
1.1529957088
1.1526497560
1.1522385885
1.1517745295
1.1512709896
1.1507419326
1.1502013121
1.1496627030
1.1491389783
1.1486420708
1.1481827829
1.1477706885
1.1474141470
1.1471201697
1.1468943965
1.1467411973
1.1466635019
1.1458811643
1.2570234512
1.2565302752
1.2562910134
1.2558179889
1.2551123785
1.2541762273
1.2530125464
1.2516249923
1.2500182519
1.2481982046
1.2461716774
1.2439467442
1.2415329947
1.2389414782
1.2361850324
1.2332787921
1.2302404115
1.2270904318
1.2238528745
1.2205553961
1.2172293038
1.2139093935
1.2106335797
1.2074419142
1.2043758320
1.2014770376
1.1987859589
1.1963407842
1.1941765756
1.1923241029
1.1908094272
1.1896537841
1.1888730436
1.1884777310
1.1890791731
1.1535800378
1.1548719963
1.1547782434
1.1545947040
1.1543272240
1.1539841904
1.1535761126
1.1531149996
1.1526139605
1.1520867001
1.1515469799
1.1510082699
1.1504834319
1.1499844841
1.1495224031
1.1491070115
1.1487469753
1.1484496404
1.1482209768
1.1480656499
1.1479868112
1.1472362467
1.2551993197
1.2547226135
1.2544940194
1.2540420597
1.2533677452
1.2524728232
1.2513598391
1.2500317955
1.2484925115
1.2467467721
1.2448001032
1.2426591024
1.2403317575
1.2378274714
1.2351574666
1.2323353708
1.2293775180
1.2263033899
1.2231362336
1.2199032402
1.2166355708
1.2133680645
1.2101388842
1.2069884639
1.2039586849
1.2010916974
1.1984283325
1.1960071056
1.1938633083
1.1920278514
1.1905268607
1.1893815742
1.1886078352
1.1882161371
1.1887778463
1.1551509493
1.1564344916
1.1563412987
1.1561588522
1.1558928177
1.1555513275
1.1551445855
1.1546842719
1.1541831887
1.1536547914
1.1531126798
1.1525702732
1.1520405016
1.1515355718
1.1510667584
1.1506442730
1.1502772401
1.1499734957
1.1497394896
1.1495803140
1.1494994414
1.1487902749
1.2531167264
1.2526574094
1.2524405494
1.2520117441
1.2513718438
1.2505222959
1.2494651653
1.2482027701
1.2467380072
1.2450744858
1.2432163252
1.2411685186
1.2389373052
1.2365302794
1.2339568782
1.2312290484
1.2283616446
1.2253729323
1.2222852849
1.2191253273
1.2159240130
1.2127161882
1.2095402571
1.2064370497
1.2034489215
1.2006185009
1.1979870544
1.1955934512
1.1934732283
1.1916574444
1.1901722893
1.1890389949
1.1882733676
1.1878858602
1.1884025465
1.1569449962
1.1582163890
1.1581231755
1.1579406700
1.1576743484
1.1573320822
1.1569237710
1.1564607798
1.1559556324
1.1554215830
1.1548721389
1.1543207606
1.1537805620
1.1532640764
1.1527830343
1.1523482116
1.1519693803
1.1516550614
1.1514123751
1.1512470117
1.1511628965
1.1505057586
1.2508270751
1.2503851029
1.2501805449
1.2497759987
1.2491721845
1.2483702822
1.2473719034
1.2461786976
1.2447926372
1.2432161321
1.2414518548
1.2395031364
1.2373743913
1.2350713125
1.2326014418
1.2299749338
1.2272050448
1.2243087043
1.2213073197
1.2182268670
1.2150980176
1.2119555745
1.2088381548
1.2057869739
1.2028448638
1.2000549394
1.1974589140
1.1950960193
1.1930020410
1.1912081840
1.1897406951
1.1886207884
1.1878642226
1.1874814006
1.1879492035
1.1589432012
1.1601978438
1.1601037708
1.1599195412
1.1596504405
1.1593040870
1.1588901010
1.1584195773
1.1579048296
1.1573590000
1.1567956134
1.1562283004
1.1556705067
1.1551352589
1.1546349290
1.1541810614
1.1537842988
1.1534540830
1.1531984432
1.1530238905
1.1529349797
1.1523411174
1.2483850574
1.2479594303
1.2477672272
1.2473870339
1.2468195039
1.2460656235
1.2451266226
1.2440035459
1.2426974888
1.2412096950
1.2395414117
1.2376943148
1.2356709824
1.2334751743
1.2311124934
1.2285912416
1.2259230060
1.2231233020
1.2202124831
1.2172158140
1.2141636059
1.2110905565
1.2080354486
1.2050398509
1.2021470501
1.1994006327
1.1968427486
1.1945129845
1.1924473652
1.1906772306
1.1892288731
1.1881234754
1.1873767360
1.1869989996
1.1874156795
1.1611232719
1.1623557311
1.1622596911
1.1620715456
1.1617964029
1.1614416590
1.1610167086
1.1605324579
1.1600011178
1.1594358488
1.1588503400
1.1582585526
1.1576744348
1.1571116912
1.1565835359
1.1561025052
1.1556803635
1.1553277525
1.1550539077
1.1548664524
1.1547708161
1.1542515818
1.2458472190
1.2454360285
1.2452557101
1.2448989480
1.2443664379
1.2436590964
1.2427778926
1.2417233771
1.2404958640
1.2390955141
1.2375222236
1.2357760729
1.2338578449
1.2317693925
1.2295143874
1.2270992748
1.2245339453
1.2218324550
1.2190140521
1.2161032248
1.2131298531
1.2101284604
1.2071379372
1.2042001536
1.2013588088
1.1986579247
1.1961400583
1.1938451276
1.1918093743
1.1900642551
1.1886360917
1.1875460202
1.1868096671
1.1864373113
1.1868023780
1.1634600495
1.1646641675
1.1645647929
1.1643700340
1.1640848596
1.1637165045
1.1632742292
1.1627688703
1.1622126820
1.1616190079
1.1610018761
1.1603757551
1.1597552746
1.1591550006
1.1585891865
1.1580715866
1.1576153584
1.1572326668
1.1569343270
1.1567294673
1.1566247434
1.1561910065
1.2432695191
1.2428700103
1.2427005838
1.2423653387
1.2418651859
1.2412011603
1.2403741471
1.2393843590
1.2382314646
1.2369146626
1.2354326074
1.2337838779
1.2319675422
1.2299836160
1.2278339002
1.2255230176
1.2230591796
1.2204549738
1.2177284591
1.2149034675
1.2120092101
1.2090800286
1.2061548533
1.2032757918
1.2004868969
1.1978325721
1.1953557359
1.1930965997
1.1910915899
1.1893722548
1.1879649263
1.1868906782
1.1861650545
1.1857982623
1.1861130274
1.1659255116
1.1670945741
1.1669902672
1.1667857563
1.1664859389
1.1660979895
1.1656311663
1.1650963961
1.1645061560
1.1638741615
1.1632149662
1.1625437214
1.1618758998
1.1612270854
1.1606127390
1.1600480389
1.1595478121
1.1591261182
1.1587958263
1.1585681168
1.1584514014
1.1581129511
1.2407059002
1.2403145492
1.2401544825
1.2398378520
1.2393660589
1.2387405333
1.2379623167
1.2370314831
1.2359472160
1.2347078881
1.2333110326
1.2317538355
1.2300337516
1.2281490639
1.2260997975
1.2238888277
1.2215227324
1.2190126598
1.2163754973
1.2136343219
1.2108176850
1.2079596689
1.2050991750
1.2022784760
1.1995419085
1.1969341914
1.1944985463
1.1922754292
1.1903014109
1.1886081013
1.1872218222
1.1861635702
1.1854487985
1.1850876383
1.1853551744
1.1684890155
1.1696159704
1.1695049568
1.1692872241
1.1689677004
1.1685536427
1.1680544831
1.1674814368
1.1668474100
1.1661666912
1.1654545387
1.1647269353
1.1640003127
1.1632913692
1.1626168751
1.1619935855
1.1614382553
1.1609672563
1.1605961223
1.1603388684
1.1602064957
1.1599715012
1.2382072426
1.2378198365
1.2376669860
1.2373650157
1.2369162607
1.2363229517
1.2355866022
1.2347073754
1.2336841324
1.2325145411
1.2311951175
1.2297217535
1.2280904018
1.2262977351
1.2243421208
1.2222247869
1.2199507576
1.2175297974
1.2149776659
1.2123166044
1.2095745292
1.2067851981
1.2039874195
1.2012235576
1.1985381563
1.1959761763
1.1935810754
1.1913934985
1.1894501149
1.1877825634
1.1864171349
1.1853747362
1.1846707233
1.1843151510
1.1845401351
1.1711180637
1.1721957956
1.1720762063
1.1718416136
1.1714971100
1.1710502190
1.1705107636
1.1698904776
1.1692029206
1.1684631517
1.1676872867
1.1668922333
1.1660954180
1.1653146463
1.1645679862
1.1638738174
1.1632510208
1.1627187283
1.1622959260
1.1620006075
1.1618477200
1.1617223039
1.2358198013
1.2354315244
1.2352829577
1.2349904531
1.2345580153
1.2339892697
1.2332865986
1.2324504876
1.2314795967
1.2303709555
1.2291201151
1.2277217406
1.2261703836
1.2244612300
1.2225911160
1.2205597389
1.2183706753
1.2160323937
1.2135595718
1.2109736022
1.2083017623
1.2055774512
1.2028393287
1.2001297812
1.1974934846
1.1949755634
1.1926196423
1.1904664952
1.1885528426
1.1869103188
1.1855651645
1.1845381861
1.1838446405
1.1834945073
1.1836829571
1.1737785747
1.1748002264
1.1746702001
1.1744151427
1.1740404727
1.1735541971
1.1729667794
1.1722907259
1.1715404810
1.1707320548
1.1698825253
1.1690097383
1.1681320328
1.1672681604
1.1664372941
1.1656593022
1.1649552487
1.1643474521
1.1638593400
1.1635145654
1.1633342832
1.1633222301
1.2335849753
1.2331905089
1.2330420987
1.2327521790
1.2323276732
1.2317744665
1.2310962777
1.2302940953
1.2293663955
1.2283095253
1.2271180287
1.2257853580
1.2243047278
1.2226699479
1.2208764457
1.2189225194
1.2168104272
1.2145474570
1.2121472730
1.2096304195
1.2070235569
1.2043597057
1.2016773322
1.1990187847
1.1964288009
1.1939525949
1.1916338883
1.1895135261
1.1876282329
1.1860096073
1.1846838232
1.1836715798
1.1829880363
1.1826431012
1.1828020151
1.1764354936
1.1773948190
1.1772526131
1.1769737385
1.1765641201
1.1760324888
1.1753902208
1.1746508622
1.1738299690
1.1729446560
1.1720130076
1.1710537192
1.1700858079
1.1691286002
1.1682019152
1.1673266687
1.1665258767
1.1658253112
1.1652539917
1.1648436524
1.1646254599
1.1647280685
1.2315398451
1.2311334729
1.2309790237
1.2306822100
1.2302550140
1.2297068044
1.2290431092
1.2282654349
1.2273718891
1.2263578886
1.2252168028
1.2239407877
1.2225217447
1.2209521806
1.2192262411
1.2173409681
1.2152974564
1.2131019625
1.2107672158
1.2083129351
1.2057652061
1.2031566665
1.2005255544
1.1979141297
1.1953671305
1.1929297932
1.1906458732
1.1885562313
1.1866975547
1.1851013781
1.1837937959
1.1827953979
1.1821212496
1.1817811956
1.1819181174
1.1790536890
1.1799454181
1.1797895219
1.1794839503
1.1790353258
1.1784533569
1.1777506148
1.1769419560
1.1760442664
1.1750758874
1.1740558910
1.1730036236
1.1719383710
1.1708793978
1.1698463350
1.1688602196
1.1679452384
1.1671304190
1.1664514566
1.1659514702
1.1656779865
1.1658940699
1.2297181089
1.2292938498
1.2291232438
1.2288057236
1.2283619631
1.2278064174
1.2271466959
1.2263844628
1.2255168760
1.2245378867
1.2234393224
1.2222118737
1.2208460432
1.2193331198
1.2176660836
1.2158408901
1.2138576640
1.2117218003
1.2094451863
1.2070467674
1.2045521084
1.2019934763
1.1994088557
1.1968403731
1.1943327166
1.1919310896
1.1896792244
1.1876179552
1.1857838934
1.1842084910
1.1829177535
1.1819321634
1.1812667006
1.1809311540
1.1810537021
1.1815983156
1.1824185061
1.1822477422
1.1819132657
1.1814225892
1.1807866547
1.1800195131
1.1791376005
1.1781593422
1.1771044080
1.1759927907
1.1748441960
1.1736775966
1.1725112554
1.1713632909
1.1702532005
1.1692045764
1.1682484112
1.1674274128
1.1668000243
1.1664403394
1.1667663241
1.2281534235
1.2277051873
1.2275003846
1.2271408066
1.2266617275
1.2260843914
1.2254180468
1.2246633415
1.2238152417
1.2228653069
1.2218032264
1.2206178228
1.2192981915
1.2178344087
1.2162184706
1.2144454434
1.2125147149
1.2104309971
1.2082054706
1.2058563854
1.2034088471
1.2008947781
1.1983518829
1.1958221191
1.1933500782
1.1909808790
1.1887582000
1.1867228060
1.1849112149
1.1833547793
1.1820794172
1.1811055078
1.1804479570
1.1801165083
1.1802319088
1.1840355289
1.1847818742
1.1845954767
1.1842307095
1.1836961619
1.1830042588
1.1821708112
1.1812141035
1.1801543147
1.1790125503
1.1778096546
1.1765653662
1.1752976475
1.1740225423
1.1727547658
1.1715095946
1.1703066231
1.1691752534
1.1681631212
1.1673470123
1.1668424605
1.1672725407
1.2268857986
1.2264075319
1.2261337422
1.2256974763
1.2251571433
1.2245413859
1.2238587078
1.2231059984
1.2222738411
1.2213499492
1.2203207975
1.2191731277
1.2178944417
1.2164737899
1.2149023365
1.2131745300
1.2112892922
1.2092509481
1.2070700317
1.2047641389
1.2023581666
1.1998836438
1.1973779904
1.1948829440
1.1924429132
1.1901029456
1.1879066054
1.1858945748
1.1841032775
1.1825639631
1.1813024660
1.1803390776
1.1796886401
1.1793608641
1.1794755277
1.1863331180
1.1870051788
1.1868028442
1.1864073184
1.1858284408
1.1850803551
1.1841809056
1.1831504994
1.1820113093
1.1807860363
1.1794963807
1.1781618664
1.1767987829
1.1754196082
1.1740332646
1.1726469022
1.1712702440
1.1699232982
1.1686504471
1.1675437428
1.1667763474
1.1673026591
1.2259736598
1.2254594900
1.2250449016
1.2244740500
1.2238369455
1.2231649626
1.2224592442
1.2217074494
1.2208920649
1.2199947573
1.2189981493
1.2178864515
1.2166457169
1.2152641127
1.2137322903
1.2120443905
1.2101990616
1.2082002776
1.2060583127
1.2037904471
1.2014210825
1.1989815707
1.1965090837
1.1940450246
1.1916336719
1.1893198890
1.1871470083
1.1851559078
1.1833828003
1.1818587925
1.1806096777
1.1796556639
1.1790115497
1.1786870229
1.1788061974
1.1884606039
1.1890599569
1.1888418617
1.1884160570
1.1877937844
1.1869911223
1.1860282109
1.1849278669
1.1837145493
1.1824128236
1.1810454332
1.1796316997
1.1781858883
1.1767158173
1.1752221463
1.1736989765
1.1721371692
1.1705324398
1.1689043219
1.1673365354
1.1660567848
1.1666694944
1.2255193277
1.2249636439
1.2242518817
1.2234487918
1.2226686004
1.2219255258
1.2211973308
1.2204530002
1.2196620666
1.2187975654
1.2178374492
1.2167633656
1.2155602435
1.2142157839
1.2127205327
1.2110686165
1.2092587220
1.2072948031
1.2051869781
1.2029523173
1.2006150758
1.1982064086
1.1957633035
1.1933270404
1.1909415618
1.1886515559
1.1865001979
1.1845279409
1.1827709919
1.1812605224
1.1800223051
1.1790765275
1.1784379504
1.1781162525
1.1782437666
1.1903897337
1.1909200331
1.1906868145
1.1902321112
1.1895686911
1.1887147535
1.1876929781
1.1865288898
1.1852495938
1.1838819493
1.1824502252
1.1809740438
1.1794660277
1.1779292086
1.1763545180
1.1747183954
1.1729814587
1.1710905364
1.1689925879
1.1666823473
1.1643390132
1.1650261848
1.2257225124
1.2251198687
1.2237548001
1.2225587539
1.2215854430
1.2207715817
1.2200383814
1.2193207675
1.2185713705
1.2177529308
1.2168379955
1.2158065051
1.2146429977
1.2133355752
1.2118752674
1.2102567119
1.2084789588
1.2065462341
1.2044687851
1.2022636260
1.1999549343
1.1975738221
1.1951570674
1.1927457725
1.1903836846
1.1881151391
1.1859831527
1.1840280452
1.1822858868
1.1807877135
1.1795592890
1.1786207914
1.1779870388
1.1776677556
1.1778058737
1.1920946155
1.1925615474
1.1923142513
1.1918328195
1.1911316349
1.1902311588
1.1891568180
1.1879371362
1.1866022810
1.1851820027
1.1837029462
1.1821862312
1.1806444449
1.1790777348
1.1774689314
1.1757761773
1.1739212304
1.1717708360
1.1691107241
1.1656258582
1.1609659064
1.1617130570
1.2269975718
1.2263422724
1.2234829705
1.2216508266
1.2204631603
1.2196222099
1.2189353477
1.2182859188
1.2176066435
1.2168544926
1.2159978336
1.2150164675
1.2138963701
1.2126271997
1.2112013914
1.2096146520
1.2078668410
1.2059627271
1.2039129083
1.2017345552
1.1994517993
1.1970957389
1.1947030294
1.1923145514
1.1899738624
1.1877250638
1.1856109670
1.1836716545
1.1819430475
1.1804561034
1.1792365677
1.1783046572
1.1776752407
1.1773581198
1.1775076103
1.1935515709
1.1939627121
1.1937027179
1.1931973589
1.1924626761
1.1915214708
1.1904020524
1.1891361796
1.1877574889
1.1862993157
1.1847918379
1.1832595970
1.1817183158
1.1801704043
1.1785987560
1.1769551874
1.1751361465
1.1729275476
1.1698701511
1.1649171293
1.1555614336
1.1563541037
1.2302366114
1.2295217076
1.2231260765
1.2203717971
1.2190821084
1.2183633843
1.2178345315
1.2173256955
1.2167592016
1.2160989804
1.2153163766
1.2143939850
1.2133217650
1.2120926804
1.2107015660
1.2091458389
1.2074265792
1.2055493894
1.2035253852
1.2013720184
1.1991134703
1.1967808327
1.1944106624
1.1920436493
1.1897231414
1.1874929531
1.1853956564
1.1834711510
1.1817552056
1.1802787305
1.1790674647
1.1781416474
1.1775162257
1.1772010983
1.1773612981
1.1947395326
1.1951041271
1.1948330685
1.1943070441
1.1935437369
1.1925682740
1.1914118635
1.1901095976
1.1886988530
1.1872171385
1.1856993185
1.1841755671
1.1826690425
1.1811931454
1.1797496999
1.1783276290
1.1769038234
1.1754534589
1.1739881089
1.1726824318
1.1723851782
1.1802015355
1.1920433477
1.1853219474
1.2033498417
1.2136823636
1.2156467946
1.2163825390
1.2166799202
1.2167576426
1.2166697563
1.2164271789
1.2160319672
1.2154903137
1.2147967993
1.2139411448
1.2129204802
1.2117329279
1.2103767244
1.2088515525
1.2071600274
1.2053087715
1.2033095780
1.2011802299
1.1989450167
1.1966350332
1.1942867154
1.1919405423
1.1896396059
1.1874274500
1.1853464013
1.1834361893
1.1817324422
1.1802660017
1.1790626163
1.1781425897
1.1775209625
1.1772077378
1.1773767390
1.1956398740
1.1959685435
1.1956882484
1.1951451419
1.1943584505
1.1933554874
1.1921702011
1.1908408884
1.1894086279
1.1879152251
1.1864005895
1.1849011708
1.1834484335
1.1820674137
1.1807775590
1.1795958995
1.1785452816
1.1776755467
1.1771106207
1.1771556207
1.1786012593
1.1840723684
1.1910915938
1.1844196369
1.1981419351
1.2069393709
1.2110285903
1.2133192134
1.2146277985
1.2153462681
1.2156670662
1.2156906585
1.2154727334
1.2150526241
1.2144502158
1.2136630996
1.2126945311
1.2115483925
1.2102266669
1.2087315100
1.2070671914
1.2052414049
1.2032666560
1.2011610870
1.1989490820
1.1966617198
1.1943352641
1.1920099579
1.1897286130
1.1875344894
1.1854696645
1.1835736728
1.1818820066
1.1804254637
1.1792298365
1.1783154980
1.1776975941
1.1773862372
1.1775611560
1.1962363418
1.1965408361
1.1962532939
1.1956969231
1.1948922839
1.1938685837
1.1926621605
1.1913141415
1.1898689421
1.1883723270
1.1868689238
1.1854010319
1.1840076080
1.1827234367
1.1815810000
1.1806148994
1.1798699943
1.1794193756
1.1793956328
1.1800443678
1.1818264089
1.1855828003
1.1899532759
1.1903331127
1.1980928102
1.2044582695
1.2086093185
1.2113874312
1.2131990431
1.2143241717
1.2149462861
1.2151856631
1.2151207180
1.2148089200
1.2142883355
1.2135652662
1.2126457606
1.2115389434
1.2102502953
1.2087842785
1.2071466999
1.2053462397
1.2033960429
1.2013145559
1.1991262348
1.1968620608
1.1945580809
1.1922542456
1.1899930550
1.1878174508
1.1857692371
1.1838877592
1.1822083892
1.1807619025
1.1795741355
1.1786655472
1.1780514013
1.1777419303
1.1779192275
1.1965158361
1.1968088547
1.1965161860
1.1959505309
1.1951334551
1.1940956128
1.1928751983
1.1915155783
1.1900638614
1.1885690606
1.1870796986
1.1856428549
1.1843033992
1.1831032569
1.1820837102
1.1812892832
1.1807741578
1.1806150875
1.1809292974
1.1818945234
1.1837632961
1.1867937419
1.1903281481
1.1929588745
1.1984058249
1.2034667955
1.2073904937
1.2103021981
1.2123574635
1.2137248749
1.2145494162
1.2149456812
1.2149983441
1.2147731842
1.2143192630
1.2136510227
1.2127746291
1.2117033435
1.2104454757
1.2090073628
1.2073960492
1.2056209836
1.2036957939
1.2016391134
1.1994754152
1.1972354797
1.1949550567
1.1926737475
1.1904336837
1.1882774560
1.1862465881
1.1843802303
1.1827136467
1.1812775908
1.1800979598
1.1791953170
1.1785850580
1.1782775316
1.1784533590
1.1964686598
1.1967636068
1.1964679869
1.1958970611
1.1950729798
1.1940272785
1.1927993314
1.1914339842
1.1899801834
1.1884892135
1.1870123564
1.1856000772
1.1843013343
1.1831629864
1.1822318441
1.1815580435
1.1811996622
1.1812320900
1.1817574826
1.1829079690
1.1848301821
1.1876001030
1.1908919389
1.1942219961
1.1987596188
1.2031810202
1.2069163297
1.2098560568
1.2120295366
1.2135343919
1.2144837914
1.2149825670
1.2151157214
1.2149520960
1.2145471161
1.2139215443
1.2130803220
1.2120395382
1.2108094138
1.2093976144
1.2078120004
1.2060624743
1.2041629307
1.2021320243
1.1999941490
1.1977797773
1.1955242732
1.1932668095
1.1910490985
1.1889133488
1.1869007822
1.1850503458
1.1833971963
1.1819720848
1.1808009835
1.1799045753
1.1792983869
1.1789928862
1.1791634689
1.1960893673
1.1964002480
1.1961038196
1.1955315308
1.1947056583
1.1936579901
1.1924283187
1.1910620946
1.1896091073
1.1881217767
1.1866528547
1.1852547048
1.1839787617
1.1828748206
1.1819930762
1.1813871663
1.1811179930
1.1812612839
1.1819132079
1.1831865882
1.1851869661
1.1879381888
1.1912331293
1.1948164884
1.1990810529
1.2032841415
1.2069553990
1.2099187617
1.2121546647
1.2137303214
1.2147445888
1.2152978803
1.2154755361
1.2153476587
1.2149729917
1.2143762186
1.2135610109
1.2125448461
1.2113389186
1.2099514902
1.2083908046
1.2066668936