<VTKFile type="UnstructuredGrid" version="0.1">
	<UnstructuredGrid>
		<Piece NumberOfPoints="13548" NumberOfCells="3387">
			<CellData>
				<DataArray type="Int32" Name="ghost" NumberOfComponents="1" Format="ascii">
1
1
1
1
1
1
1
1
1
1
1
1
1
1
1
1
1
1
1
1
1
1
1
1
1
1
1
1
1
1
1
1
1
1
1
1
1
1
1
1
1
1
1
1
1
1
1
1
1
1
1
1
1
1
1
1
1
1
0
0
0
0
0
0
0
0
0
0
0
0
0
0
0
0
0
0
0
0
1
1
0
0
0
0
0
0
0
0
0
0
0
0
0
0
0
0
0
0
0
0
0
0
0
0
0
0
0
0
0
0
0
0
0
1
1
0
0
0
0
0
0
0
0
0
0
0
0
0
0
0
0
0
0
0
0
1
1
0
0
0
0
0
0
0
0
0
0
0
0
0
0
0
0
0
0
0
0
0
0
0
0
0
0
0
0
0
0
0
0
0
1
1
0
0
0
0
0
0
0
0
0
0
0
0
0
0
0
0
0
0
0
0
1
1
0
0
0
0
0
0
0
0
0
0
0
0
0
0
0
0
0
0
0
0
0
0
0
0
0
0
0
0
0
0
0
0
0
1
1
0
0
0
0
0
0
0
0
0
0
0
0
0
0
0
0
0
0
0
0
1
1
0
0
0
0
0
0
0
0
0
0
0
0
0
0
0
0
0
0
0
0
0
0
0
0
0
0
0
0
0
0
0
0
0
1
1
0
0
0
0
0
0
0
0
0
0
0
0
0
0
0
0
0
0
0
0
1
1
0
0
0
0
0
0
0
0
0
0
0
0
0
0
0
0
0
0
0
0
0
0
0
0
0
0
0
0
0
0
0
0
0
1
1
0
0
0
0
0
0
0
0
0
0
0
0
0
0
0
0
0
0
0
0
1
1
0
0
0
0
0
0
0
0
0
0
0
0
0
0
0
0
0
0
0
0
0
0
0
0
0
0
0
0
0
0
0
0
0
1
1
0
0
0
0
0
0
0
0
0
0
0
0
0
0
0
0
0
0
0
0
1
1
0
0
0
0
0
0
0
0
0
0
0
0
0
0
0
0
0
0
0
0
0
0
0
0
0
0
0
0
0
0
0
0
0
1
1
0
0
0
0
0
0
0
0
0
0
0
0
0
0
0
0
0
0
0
0
1
1
0
0
0
0
0
0
0
0
0
0
0
0
0
0
0
0
0
0
0
0
0
0
0
0
0
0
0
0
0
0
0
0
0
1
1
0
0
0
0
0
0
0
0
0
0
0
0
0
0
0
0
0
0
0
0
1
1
0
0
0
0
0
0
0
0
0
0
0
0
0
0
0
0
0
0
0
0
0
0
0
0
0
0
0
0
0
0
0
0
0
1
1
0
0
0
0
0
0
0
0
0
0
0
0
0
0
0
0
0
0
0
0
1
1
0
0
0
0
0
0
0
0
0
0
0
0
0
0
0
0
0
0
0
0
0
0
0
0
0
0
0
0
0
0
0
0
0
1
1
0
0
0
0
0
0
0
0
0
0
0
0
0
0
0
0
0
0
0
0
1
1
0
0
0
0
0
0
0
0
0
0
0
0
0
0
0
0
0
0
0
0
0
0
0
0
0
0
0
0
0
0
0
0
0
1
1
0
0
0
0
0
0
0
0
0
0
0
0
0
0
0
0
0
0
0
0
1
1
0
0
0
0
0
0
0
0
0
0
0
0
0
0
0
0
0
0
0
0
0
0
0
0
0
0
0
0
0
0
0
0
0
1
1
0
0
0
0
0
0
0
0
0
0
0
0
0
0
0
0
0
0
0
0
1
1
0
0
0
0
0
0
0
0
0
0
0
0
0
0
0
0
0
0
0
0
0
0
0
0
0
0
0
0
0
0
0
0
0
1
1
0
0
0
0
0
0
0
0
0
0
0
0
0
0
0
0
0
0
0
0
1
1
0
0
0
0
0
0
0
0
0
0
0
0
0
0
0
0
0
0
0
0
0
0
0
0
0
0
0
0
0
0
0
0
0
1
1
0
0
0
0
0
0
0
0
0
0
0
0
0
0
0
0
0
0
0
0
1
1
0
0
0
0
0
0
0
0
0
0
0
0
0
0
0
0
0
0
0
0
0
0
0
0
0
0
0
0
0
0
0
0
0
1
1
0
0
0
0
0
0
0
0
0
0
0
0
0
0
0
0
0
0
0
0
1
1
0
0
0
0
0
0
0
0
0
0
0
0
0
0
0
0
0
0
0
0
0
0
0
0
0
0
0
0
0
0
0
0
0
1
1
0
0
0
0
0
0
0
0
0
0
0
0
0
0
0
0
0
0
0
0
1
1
0
0
0
0
0
0
0
0
0
0
0
0
0
0
0
0
0
0
0
0
0
0
0
0
0
0
0
0
0
0
0
0
0
1
1
0
0
0
0
0
0
0
0
0
0
0
0
0
0
0
0
0
0
0
0
1
1
0
0
0
0
0
0
0
0
0
0
0
0
0
0
0
0
0
0
0
0
0
0
0
0
0
0
0
0
0
0
0
0
0
1
1
0
0
0
0
0
0
0
0
0
0
0
0
0
0
0
0
0
0
0
0
1
1
0
0
0
0
0
0
0
0
0
0
0
0
0
0
0
0
0
0
0
0
0
0
0
0
0
0
0
0
0
0
0
0
0
1
1
0
0
0
0
0
0
0
0
0
0
0
0
0
0
0
0
0
0
0
0
1
1
0
0
0
0
0
0
0
0
0
0
0
0
0
0
0
0
0
0
0
0
0
0
0
0
0
0
0
0
0
0
0
0
0
1
1
0
0
0
0
0
0
0
0
0
0
0
0
0
0
0
0
0
0
0
0
1
1
0
0
0
0
0
0
0
0
0
0
0
0
0
0
0
0
0
0
0
0
0
0
0
0
0
0
0
0
0
0
0
0
0
1
1
0
0
0
0
0
0
0
0
0
0
0
0
0
0
0
0
0
0
0
0
1
1
0
0
0
0
0
0
0
0
0
0
0
0
0
0
0
0
0
0
0
0
0
0
0
0
0
0
0
0
0
0
0
0
0
1
1
0
0
0
0
0
0
0
0
0
0
0
0
0
0
0
0
0
0
0
0
1
1
0
0
0
0
0
0
0
0
0
0
0
0
0
0
0
0
0
0
0
0
0
0
0
0
0
0
0
0
0
0
0
0
0
1
1
0
0
0
0
0
0
0
0
0
0
0
0
0
0
0
0
0
0
0
0
1
1
0
0
0
0
0
0
0
0
0
0
0
0
0
0
0
0
0
0
0
0
0
0
0
0
0
0
0
0
0
0
0
0
0
1
1
0
0
0
0
0
0
0
0
0
0
0
0
0
0
0
0
0
0
0
0
0
1
1
0
0
0
0
0
0
0
0
0
0
0
0
0
0
0
0
0
0
0
0
0
0
0
0
0
0
0
0
0
0
0
0
0
0
1
1
0
0
0
0
0
0
0
0
0
0
0
0
0
0
0
0
0
0
0
0
0
0
0
0
0
0
0
0
0
0
0
0
0
0
0
0
0
0
0
0
0
0
0
0
0
0
0
0
0
0
0
0
0
0
0
0
0
1
1
0
0
0
0
0
0
0
0
0
0
0
0
0
0
0
0
0
0
0
0
0
0
0
0
0
0
0
0
0
0
0
0
0
0
0
0
0
0
0
0
0
0
0
0
0
0
0
0
0
0
0
0
0
0
0
0
0
1
1
0
0
0
0
0
0
0
0
0
0
0
0
0
0
0
0
0
0
0
0
0
0
0
0
0
0
0
0
0
0
0
0
0
0
0
0
0
0
0
0
0
0
0
0
0
0
0
0
0
0
0
0
0
0
0
0
0
1
1
0
0
0
0
0
0
0
0
0
0
0
0
0
0
0
0
0
0
0
0
0
0
0
0
0
0
0
0
0
0
0
0
0
0
0
0
0
0
0
0
0
0
0
0
0
0
0
0
0
0
0
0
0
0
0
0
0
1
1
0
0
0
0
0
0
0
0
0
0
0
0
0
0
0
0
0
0
0
0
0
0
0
0
0
0
0
0
0
0
0
0
0
0
0
0
0
0
0
0
0
0
0
0
0
0
0
0
0
0
0
0
0
0
0
0
0
1
1
0
0
0
0
0
0
0
0
0
0
0
0
0
0
0
0
0
0
0
0
0
0
0
0
0
0
0
0
0
0
0
0
0
0
0
0
0
0
0
0
0
0
0
0
0
0
0
0
0
0
0
0
0
0
0
0
0
1
1
0
0
0
0
0
0
0
0
0
0
0
0
0
0
0
0
0
0
0
0
0
0
0
0
0
0
0
0
0
0
0
0
0
0
0
0
0
0
0
0
0
0
0
0
0
0
0
0
0
0
0
0
0
0
0
0
0
1
1
0
0
0
0
0
0
0
0
0
0
0
0
0
0
0
0
0
0
0
0
0
0
0
0
0
0
0
0
0
0
0
0
0
0
0
0
0
0
0
0
0
0
0
0
0
0
0
0
0
0
0
0
0
0
0
0
0
1
1
0
0
0
0
0
0
0
0
0
0
0
0
0
0
0
0
0
0
0
0
0
0
0
0
0
0
0
0
0
0
0
0
0
0
0
0
0
0
0
0
0
0
0
0
0
0
0
0
0
0
0
0
0
0
0
0
0
1
1
0
0
0
0
0
0
0
0
0
0
0
0
0
0
0
0
0
0
0
0
0
0
0
0
0
0
0
0
0
0
0
0
0
0
0
0
0
0
0
0
0
0
0
0
0
0
0
0
0
0
0
0
0
0
0
0
0
1
1
0
0
0
0
0
0
0
0
0
0
0
0
0
0
0
0
0
0
0
0
0
1
1
0
0
0
0
0
0
0
0
0
0
0
0
0
0
0
0
0
0
0
0
0
0
0
0
0
0
0
0
0
0
0
0
0
0
1
1
0
0
0
0
0
0
0
0
0
0
0
0
0
0
0
0
0
0
0
0
1
1
0
0
0
0
0
0
0
0
0
0
0
0
0
0
0
0
0
0
0
0
0
0
0
0
0
0
0
0
0
0
0
0
0
1
1
0
0
0
0
0
0
0
0
0
0
0
0
0
0
0
0
0
0
0
0
1
1
0
0
0
0
0
0
0
0
0
0
0
0
0
0
0
0
0
0
0
0
0
0
0
0
0
0
0
0
0
0
0
0
0
1
1
0
0
0
0
0
0
0
0
0
0
0
0
0
0
0
0
0
0
0
0
1
1
0
0
0
0
0
0
0
0
0
0
0
0
0
0
0
0
0
0
0
0
0
0
0
0
0
0
0
0
0
0
0
0
0
1
1
0
0
0
0
0
0
0
0
0
0
0
0
0
0
0
0
0
0
0
0
1
1
0
0
0
0
0
0
0
0
0
0
0
0
0
0
0
0
0
0
0
0
0
0
0
0
0
0
0
0
0
0
0
0
0
1
1
0
0
0
0
0
0
0
0
0
0
0
0
0
0
0
0
0
0
0
0
1
1
0
0
0
0
0
0
0
0
0
0
0
0
0
0
0
0
0
0
0
0
0
0
0
0
0
0
0
0
0
0
0
0
0
1
1
0
0
0
0
0
0
0
0
0
0
0
0
0
0
0
0
0
0
0
0
1
1
0
0
0
0
0
0
0
0
0
0
0
0
0
0
0
0
0
0
0
0
0
0
0
0
0
0
0
0
0
0
0
0
0
1
1
0
0
0
0
0
0
0
0
0
0
0
0
0
0
0
0
0
0
0
0
1
1
0
0
0
0
0
0
0
0
0
0
0
0
0
0
0
0
0
0
0
0
0
0
0
0
0
0
0
0
0
0
0
0
0
1
1
0
0
0
0
0
0
0
0
0
0
0
0
0
0
0
0
0
0
0
0
1
1
0
0
0
0
0
0
0
0
0
0
0
0
0
0
0
0
0
0
0
0
0
0
0
0
0
0
0
0
0
0
0
0
0
1
1
0
0
0
0
0
0
0
0
0
0
0
0
0
0
0
0
0
0
0
0
1
1
0
0
0
0
0
0
0
0
0
0
0
0
0
0
0
0
0
0
0
0
0
0
0
0
0
0
0
0
0
0
0
0
0
1
1
0
0
0
0
0
0
0
0
0
0
0
0
0
0
0
0
0
0
0
0
1
1
0
0
0
0
0
0
0
0
0
0
0
0
0
0
0
0
0
0
0
0
0
0
0
0
0
0
0
0
0
0
0
0
0
1
1
0
0
0
0
0
0
0
0
0
0
0
0
0
0
0
0
0
0
0
0
1
1
0
0
0
0
0
0
0
0
0
0
0
0
0
0
0
0
0
0
0
0
0
0
0
0
0
0
0
0
0
0
0
0
0
1
1
0
0
0
0
0
0
0
0
0
0
0
0
0
0
0
0
0
0
0
0
1
1
0
0
0
0
0
0
0
0
0
0
0
0
0
0
0
0
0
0
0
0
0
0
0
0
0
0
0
0
0
0
0
0
0
1
1
0
0
0
0
0
0
0
0
0
0
0
0
0
0
0
0
0
0
0
0
1
1
0
0
0
0
0
0
0
0
0
0
0
0
0
0
0
0
0
0
0
0
0
0
0
0
0
0
0
0
0
0
0
0
0
1
1
0
0
0
0
0
0
0
0
0
0
0
0
0
0
0
0
0
0
0
0
1
1
0
0
0
0
0
0
0
0
0
0
0
0
0
0
0
0
0
0
0
0
0
0
0
0
0
0
0
0
0
0
0
0
0
1
1
0
0
0
0
0
0
0
0
0
0
0
0
0
0
0
0
0
0
0
0
1
1
0
0
0
0
0
0
0
0
0
0
0
0
0
0
0
0
0
0
0
0
0
0
0
0
0
0
0
0
0
0
0
0
0
1
1
0
0
0
0
0
0
0
0
0
0
0
0
0
0
0
0
0
0
0
0
1
1
0
0
0
0
0
0
0
0
0
0
0
0
0
0
0
0
0
0
0
0
0
0
0
0
0
0
0
0
0
0
0
0
0
1
1
0
0
0
0
0
0
0
0
0
0
0
0
0
0
0
0
0
0
0
0
1
1
0
0
0
0
0
0
0
0
0
0
0
0
0
0
0
0
0
0
0
0
0
0
0
0
0
0
0
0
0
0
0
0
0
1
1
0
0
0
0
0
0
0
0
0
0
0
0
0
0
0
0
0
0
0
0
1
1
0
0
0
0
0
0
0
0
0
0
0
0
0
0
0
0
0
0
0
0
0
0
0
0
0
0
0
0
0
0
0
0
0
1
1
0
0
0
0
0
0
0
0
0
0
0
0
0
0
0
0
0
0
0
0
1
1
0
0
0
0
0
0
0
0
0
0
0
0
0
0
0
0
0
0
0
0
0
0
0
0
0
0
0
0
0
0
0
0
0
1
1
0
0
0
0
0
0
0
0
0
0
0
0
0
0
0
0
0
0
0
0
1
1
0
0
0
0
0
0
0
0
0
0
0
0
0
0
0
0
0
0
0
0
0
0
0
0
0
0
0
0
0
0
0
0
0
1
1
0
0
0
0
0
0
0
0
0
0
0
0
0
0
0
0
0
0
0
0
1
1
0
0
0
0
0
0
0
0
0
0
0
0
0
0
0
0
0
0
0
0
0
0
0
0
0
0
0
0
0
0
0
0
0
1
1
1
1
1
1
1
1
1
1
1
1
1
1
1
1
1
1
1
1
1
1
1
1
1
1
1
1
1
1
1
1
1
1
1
1
1
1
1
1
1
1
1
1
1
1
1
1
1
1
1
1
1
1
1
1
1
1
				</DataArray>
				<DataArray type="Float64" Name="h" NumberOfComponents="1" Format="ascii">
1.1323512460
1.1330520923
1.1331075611
1.1332170853
1.1333764031
1.1335795276
1.1338190952
1.1340866933
1.1343734850
1.1346705919
1.1349694372
1.1352621443
1.1355416766
1.1358020023
1.1360381452
1.1362460915
1.1364228286
1.1365661529
1.1366744873
1.1367469143
1.1367829084
1.1367829084
1.2542736399
1.2553948394
1.2551336537
1.2546270881
1.2538812362
1.2529048828
1.2517090522
1.2503059106
1.2487089899
1.2469330648
1.2449936815
1.2429078669
1.2406946482
1.2383751384
1.2359731409
1.2335153008
1.2310305323
1.2285494834
1.2261036273
1.2237239102
1.2214393043
1.2192756446
1.2172547196
1.2153933798
1.2137034001
1.2121919535
1.2108617414
1.2097118343
1.2087390552
1.2079384269
1.2073041472
1.2068310081
1.2065144759
1.2063512216
1.2063512216
1.1330520923
1.1337970351
1.1338429520
1.1339337138
1.1340656490
1.1342336149
1.1344313103
1.1346515526
1.1348868534
1.1351297513
1.1353731032
1.1356104357
1.1358360537
1.1360451756
1.1362339614
1.1363994091
1.1365393826
1.1366524099
1.1367375011
1.1367941798
1.1368222142
1.1367829084
1.2553948394
1.2564449961
1.2561773162
1.2556574531
1.2548917580
1.2538893909
1.2526618411
1.2512217921
1.2495832627
1.2477614083
1.2457719739
1.2436319312
1.2413599689
1.2389765840
1.2365047475
1.2339702332
1.2314011598
1.2288276267
1.2262809781
1.2237925601
1.2213923222
1.2191076466
1.2169623461
1.2149756438
1.2131618952
1.2115308937
1.2100878691
1.2088342325
1.2077688704
1.2068885601
1.2061889382
1.2056659102
1.2053157554
1.2051356794
1.2063512216
1.1333080542
1.1340554491
1.1341014640
1.1341924380
1.1343247145
1.1344931697
1.1346915207
1.1349125991
1.1351489239
1.1353930288
1.1356377485
1.1358765709
1.1361037491
1.1363144426
1.1365047506
1.1366716130
1.1368128422
1.1369269230
1.1370128311
1.1370700654
1.1370983782
1.1370541642
1.2552228119
1.2562450541
1.2559781056
1.2554595258
1.2546955312
1.2536951040
1.2524695324
1.2510312985
1.2493942370
1.2475733520
1.2455842894
1.2434439788
1.2411711169
1.2387862478
1.2363124077
1.2337755342
1.2312038975
1.2286277449
1.2260785532
1.2235877758
1.2211854384
1.2188989677
1.2167521911
1.2147643222
1.2129496898
1.2113180491
1.2098745873
1.2086206740
1.2075551567
1.2066747792
1.2059751514
1.2054521567
1.2051020575
1.2049220482
1.2061286922
1.1338183974
1.1345707134
1.1346169404
1.1347083716
1.1348413796
1.1350108769
1.1352106174
1.1354334607
1.1356719357
1.1359185583
1.1361661103
1.1364079952
1.1366383594
1.1368522442
1.1370456291
1.1372153407
1.1373590912
1.1374752817
1.1375628219
1.1376211644
1.1376500316
1.1375961463
1.2548788732
1.2558463453
1.2555809179
1.2550650206
1.2543045954
1.2533082622
1.2520868973
1.2506525687
1.2490187285
1.2472000709
1.2452120340
1.2430714511
1.2407970328
1.2384094235
1.2359318397
1.2333905296
1.2308140650
1.2282329790
1.2256790051
1.2231838021
1.2207775411
1.2184877330
1.2163382309
1.2143482276
1.2125319983
1.2108992227
1.2094550048
1.2082006335
1.2071348804
1.2062544257
1.2055548284
1.2050319294
1.2046819599
1.2045020929
1.2056917430
1.1345798985
1.1353396204
1.1353862041
1.1354783965
1.1356126116
1.1357838142
1.1359858105
1.1362114956
1.1364533989
1.1367039889
1.1369559497
1.1372025477
1.1374377651
1.1376564685
1.1378544641
1.1380284167
1.1381758980
1.1382951937
1.1383851255
1.1384450856
1.1384747600
1.1384068900
1.2543669088
1.2552548921
1.2549917570
1.2544799137
1.2537249029
1.2527348114
1.2515199069
1.2500916410
1.2484628964
1.2466479007
1.2446617733
1.2425211899
1.2402448675
1.2378535842
1.2353708599
1.2328233611
1.2302401108
1.2276520624
1.2250913258
1.2225898642
1.2201780638
1.2178835610
1.2157302483
1.2137372887
1.2119188790
1.2102845877
1.2088393959
1.2075844730
1.2065184789
1.2056379991
1.2049385180
1.2044158140
1.2040660725
1.2038864352
1.2050521794
1.1355876916
1.1363573533
1.1364044854
1.1364978351
1.1366338672
1.1368076113
1.1370129336
1.1372427537
1.1374895705
1.1377457550
1.1380038361
1.1382568848
1.1384986628
1.1387238081
1.1389279059
1.1391074185
1.1392597474
1.1393830446
1.1394760349
1.1395380514
1.1395687468
1.1394832321
1.2536925806
1.2544793872
1.2542192889
1.2537128316
1.2529650447
1.2519833321
1.2507771759
1.2493572289
1.2477356278
1.2459259813
1.2439429751
1.2418030565
1.2395249176
1.2371295067
1.2346407553
1.2320858069
1.2294942898
1.2268977001
1.2243286392
1.2218194687
1.2194008600
1.2171006176
1.2149426890
1.2129462015
1.2111252514
1.2094892619
1.2080430534
1.2067876380
1.2057215276
1.2048411831
1.2041419902
1.2036196449
1.2032702721
1.2030909730
1.2042275439
1.1368350899
1.1376172918
1.1376652261
1.1377602518
1.1378988915
1.1380762429
1.1382862193
1.1385217252
1.1387751691
1.1390387591
1.1393048033
1.1395661158
1.1398161818
1.1400493594
1.1402609682
1.1404472363
1.1406053780
1.1407334118
1.1408299795
1.1408943766
1.1409262448
1.1408202914
1.2528636081
1.2535313083
1.2532749441
1.2527751286
1.2520362933
1.2510650379
1.2498699121
1.2484606108
1.2468483669
1.2450460250
1.2430677204
1.2409295938
1.2386502483
1.2362508667
1.2337558425
1.2311928313
1.2285922035
1.2259861082
1.2234077418
1.2208899527
1.2184637639
1.2161571898
1.2139942504
1.2119940337
1.2101705156
1.2085329430
1.2070859384
1.2058303200
1.2047644163
1.2038845330
1.2031859325
1.2026642086
1.2023154109
1.2021365909
1.2032406830
1.1383134291
1.1391108277
1.1391598904
1.1392572580
1.1393995088
1.1395817928
1.1397980214
1.1400410128
1.1403030036
1.1405759636
1.1408519111
1.1411233385
1.1413833919
1.1416260949
1.1418464600
1.1420404583
1.1422051208
1.1423383594
1.1424387796
1.1425056953
1.1425387863
1.1424107140
1.2518904433
1.2524253883
1.2521733672
1.2516812955
1.2509529530
1.2499940520
1.2488121022
1.2474157178
1.2458150951
1.2440221861
1.2420504638
1.2399156491
1.2376362623
1.2352337267
1.2327328725
1.2301619144
1.2275520712
1.2249362378
1.2223482919
1.2198216454
1.2173877321
1.2150748156
1.2129070044
1.2109033444
1.2090776737
1.2074390322
1.2059918096
1.2047365933
1.2036714921
1.2027926249
1.2020951060
1.2015744050
1.2012264815
1.2010483269
1.2021187343
1.1400120601
1.1408273563
1.1408779562
1.1409784965
1.1411255925
1.1413143909
1.1415387186
1.1417912080
1.1420638354
1.1423482494
1.1426361014
1.1429194840
1.1431911283
1.1434446587
1.1436747408
1.1438770818
1.1440485601
1.1441870499
1.1442912160
1.1443604966
1.1443947022
1.1442442030
1.2507862023
1.2511793078
1.2509321002
1.2504486276
1.2497320045
1.2487870229
1.2476200962
1.2462386810
1.2446518426
1.2428705349
1.2409074554
1.2387778466
1.2365001187
1.2340958821
1.2315903744
1.2290123692
1.2263940376
1.2237690760
1.2211721100
1.2186371731
1.2161961570
1.2138776056
1.2117057291
1.2096995272
1.2078726823
1.2062339981
1.2047875959
1.2035337950
1.2024704470
1.2015934508
1.2008977448
1.2003786513
1.2000320227
1.1998547801
1.2008923616
1.1419180658
1.1427539743
1.1428066116
1.1429113224
1.1430647100
1.1432618232
1.1434962907
1.1437604540
1.1440459322
1.1443439616
1.1446457253
1.1449428124
1.1452274409
1.1454927609
1.1457330538
1.1459437775
1.1461217307
1.1462648756
1.1463721020
1.1464431521
1.1464781237
1.1463065305
1.2495669841
1.2498137984
1.2495716713
1.2490972850
1.2483931281
1.2474631030
1.2463125351
1.2449477063
1.2433765031
1.2416088070
1.2396564779
1.2375342367
1.2352602894
1.2328563657
1.2303480708
1.2277647184
1.2251394953
1.2225069249
1.2199024172
1.2173606638
1.2149140431
1.2125913980
1.2104170457
1.2084099318
1.2065835631
1.2049464769
1.2035024892
1.2022516127
1.2011914015
1.2003174981
1.1996246341
1.1991079578
1.1987631952
1.1985871844
1.1995946619
1.1440160815
1.1448752793
1.1449305401
1.1450405625
1.1452018423
1.1454092136
1.1456559851
1.1459340984
1.1462347090
1.1465485192
1.1468661081
1.1471784201
1.1474770362
1.1477545464
1.1480048200
1.1482231090
1.1484062582
1.1485525209
1.1486612736
1.1487328482
1.1487678820
1.1485784142
1.2482525383
1.2483530913
1.2481160192
1.2476506741
1.2469590286
1.2460442073
1.2449105369
1.2435631797
1.2420088571
1.2402563679
1.2383167001
1.2362039709
1.2339361166
1.2315349076
1.2290262413
1.2264399563
1.2238102518
1.2211724784
1.2185628309
1.2160166668
1.2135668587
1.2112425501
1.2090681583
1.2070625593
1.2052390601
1.2036058973
1.2021665426
1.2009206597
1.1998654608
1.1989962913
1.1983076398
1.1977944498
1.1974522972
1.1972779228
1.1982595356
1.1462882753
1.1471733493
1.1472318800
1.1473484409
1.1475192985
1.1477389428
1.1480002502
1.1482946431
1.1486126764
1.1489443522
1.1492794612
1.1496081239
1.1499211342
1.1502104258
1.1504694373
1.1506932926
1.1508790699
1.1510256116
1.1511331709
1.1512031040
1.1512369862
1.1510349032
1.2468659417
1.2468243875
1.2465919488
1.2461348835
1.2454548544
1.2445544246
1.2434371106
1.2421070962
1.2405700264
1.2388336469
1.2369080576
1.2348067276
1.2325472316
1.2301513207
1.2276449128
1.2250589056
1.2224278649
1.2197881206
1.2171766250
1.2146293773
1.2121797235
1.2098570894
1.2076859697
1.2056851443
1.2038676888
1.2022414998
1.2008096608
1.1995714395
1.1985236570
1.1976613140
1.1969786148
1.1964702606
1.1961316496
1.1959594069
1.1969204787
1.1487139994
1.1496273701
1.1496898248
1.1498141611
1.1499962896
1.1502302395
1.1505083351
1.1508213377
1.1511590142
1.1515104467
1.1518644045
1.1522099673
1.1525369645
1.1528365652
1.1531017616
1.1533276543
1.1535118055
1.1536540547
1.1537560863
1.1538209288
1.1538517190
1.1536443520
1.2454336936
1.2452578038
1.2450290436
1.2445785490
1.2439080196
1.2430198123
1.2419169395
1.2406028402
1.2390822336
1.2373618920
1.2354510401
1.2333624569
1.2311132969
1.2287250834
1.2262241149
1.2236418954
1.2210132071
1.2183754240
1.2157661594
1.2132219951
1.2107767019
1.2084599437
1.2062962509
1.2043042674
1.2024967957
1.2008813463
1.1994605648
1.1982332704
1.1971958370
1.1963428672
1.1956682318
1.1951663462
1.1948323974
1.1946628725
1.1956093358
1.1512696501
1.1522134525
1.1522804365
1.1524137187
1.1526087572
1.1528590095
1.1531561118
1.1534899727
1.1538493316
1.1542220790
1.1545956894
1.1549579487
1.1552975157
1.1556046601
1.1558718976
1.1560944173
1.1562705644
1.1564016993
1.1564916975
1.1565462096
1.1565709172
1.1563675463
1.2439861291
1.2436866447
1.2434598706
1.2430129670
1.2423482346
1.2414683665
1.2403763143
1.2390750966
1.2375687170
1.2358630828
1.2339665827
1.2318912793
1.2296537913
1.2272755794
1.2247832333
1.2222083621
1.2195860607
1.2169546181
1.2143522473
1.2118160013
1.2093799896
1.2070740429
1.2049226643
1.2029443050
1.2011514408
1.1995511412
1.1981455571
1.1969330003
1.1959093349
1.1950687039
1.1944045885
1.1939110673
1.1935830762
1.1934169384
1.1943548686
1.1539286638
1.1549046265
1.1549766697
1.1551199668
1.1553294719
1.1555979602
1.1559162024
1.1562730140
1.1566558194
1.1570510107
1.1574444610
1.1578223775
1.1581720004
1.1584825168
1.1587458832
1.1589574510
1.1591166550
1.1592269967
1.1592955472
1.1593319582
1.1593460271
1.1591575680
1.2425567303
1.2421466136
1.2419190815
1.2414710700
1.2408063983
1.2399288973
1.2388420545
1.2375488666
1.2360528589
1.2343591967
1.2324754643
1.2304129927
1.2281879542
1.2258216202
1.2233406082
1.2207765499
1.2181647626
1.2155443152
1.2129538595
1.2104308256
1.2080095434
1.2057199079
1.2035863077
1.2016269264
1.1998538474
1.1982736342
1.1968878795
1.1956943220
1.1946882471
1.1938632704
1.1932124194
1.1927293783
1.1924087866
1.1922467722
1.1931819739
1.1566611430
1.1576704845
1.1577480587
1.1579023564
1.1581277996
1.1584163629
1.1587577371
1.1591393656
1.1595470455
1.1599653470
1.1603782156
1.1607699582
1.1611260927
1.1614344539
1.1616862459
1.1618769365
1.1620072733
1.1620835521
1.1621173003
1.1621241502
1.1621205653
1.1619590810
1.2411820732
1.2406757137
1.2404430797
1.2399868382
1.2393138416
1.2384302153
1.2373407311
1.2360487889
1.2345576433
1.2328717973
1.2309980619
1.2289470571
1.2267343937
1.2243810676
1.2219135923
1.2193634806
1.2167662142
1.2141614191
1.2115880550
1.2090837557
1.2066829465
1.2044154656
1.2023054777
1.2003708065
1.1986230631
1.1970682317
1.1957072765
1.1945372923
1.1935529114
1.1927471489
1.1921125091
1.1916422183
1.1913305686
1.1911734583
1.1921111288
1.1594338579
1.1604772417
1.1605608069
1.1607270552
1.1609698280
1.1612801649
1.1616464540
1.1620544804
1.1624881093
1.1629297709
1.1633611474
1.1637642931
1.1641226239
1.1644222209
1.1646531442
1.1648106838
1.1648968742
1.1649213271
1.1649014787
1.1648617150
1.1648293446
1.1647074065
1.2399023518
1.2393147387
1.2390700203
1.2385948247
1.2379015628
1.2370002752
1.2358978596
1.2345984557
1.2331051224
1.2314216703
1.2295540726
1.2275121489
1.2253108972
1.2229708899
1.2205184592
1.2179849146
1.2154058379
1.2128211337
1.2102698954
1.2077898188
1.2054152615
1.2031758633
1.2010954414
1.1991913528
1.1974746450
1.1959506409
1.1946196004
1.1934779001
1.1925194422
1.1917365645
1.1911211747
1.1906659741
1.1903648529
1.1902134418
1.1911579337
1.1622105838
1.1632881762
1.1633782100
1.1635573532
1.1638187709
1.1641524147
1.1645451613
1.1649808955
1.1654412823
1.1659063235
1.1663551185
1.1667670927
1.1671230935
1.1674068611
1.1676066105
1.1677167121
1.1677399234
1.1676892182
1.1675893181
1.1674770439
1.1673973776
1.1673273353
1.2387614625
1.2381073744
1.2378388815
1.2373283821
1.2365980467
1.2356639575
1.2345358680
1.2332186705
1.2317149747
1.2300276152
1.2281615131
1.2261255394
1.2239339434
1.2216068288
1.2191702250
1.2166550913
1.2140976412
1.2115370055
1.2090125762
1.2065619240
1.2042191752
1.2020136196
1.1999685871
1.1981008494
1.1964207906
1.1949329850
1.1936369091
1.1925281459
1.1915997905
1.1908434266
1.1902502918
1.1898124937
1.1895234650
1.1893785293
1.1903332019
1.1649522940
1.1660638851
1.1661608548
1.1663537894
1.1666350490
1.1669933383
1.1674138572
1.1678784093
1.1683662655
1.1688547814
1.1693202041
1.1697389598
1.1700887821
1.1703502617
1.1705086304
1.1705558835
1.1704939324
1.1703380087
1.1701206791
1.1698954926
1.1697359121
1.1697291487
1.2378090790
1.2371023337
1.2367893194
1.2362179737
1.2354269829
1.2344408321
1.2332722044
1.2319259658
1.2304034008
1.2287056845
1.2268362436
1.2248027639
1.2226186347
1.2203033746
1.2178826108
1.2153877044
1.2128545441
1.2103212523
1.2078277221
1.2054111778
1.2031053321
1.2009389578
1.1989347530
1.1971087797
1.1954706526
1.1940241070
1.1927677575
1.1916963201
1.1908020096
1.1900755834
1.1895075379
1.1890893218
1.1888138555
1.1886761163
1.1896432676
1.1676179107
1.1687630047
1.1688672989
1.1690747713
1.1693768569
1.1697608901
1.1702102818
1.1707046589
1.1712208085
1.1717333406
1.1722154880
1.1726403761
1.1729820597
1.1732169666
1.1733256877
1.1732953723
1.1731238289
1.1728250680
1.1724374856
1.1720346117
1.1717339627
1.1718002072
1.2371059148
1.2363586835
1.2359618290
1.2352886148
1.2344040351
1.2333423018
1.2321171757
1.2307311097
1.2291821444
1.2274685510
1.2255915902
1.2235574514
1.2213785601
1.2190739233
1.2166690851
1.2141953438
1.2116880519
1.2091848835
1.2067256286
1.2043471608
1.2020826292
1.1999601252
1.1980015667
1.1962221783
1.1946307001
1.1932299392
1.1920175730
1.1909873834
1.1901306391
1.1894372069
1.1888967795
1.1885000868
1.1882394871
1.1881095752
1.1890904461
1.1701652033
1.1713430180
1.1714548910
1.1716774083
1.1720010129
1.1724116089
1.1728907898
1.1734160162
1.1739616429
1.1744996031
1.1750001387
1.1754329546
1.1757679807
1.1759764064
1.1760320626
1.1759135554
1.1756087997
1.1751226996
1.1744910971
1.1738043404
1.1732408072
1.1733875944
1.2367343769
1.2359566003
1.2353964065
1.2345539456
1.2335306407
1.2323667028
1.2310705209
1.2296368251
1.2280569846
1.2263244927
1.2244376116
1.2224008027
1.2202255882
1.2179306146
1.2155412859
1.2130889977
1.2106086721
1.2081376019
1.2057153149
1.2033781265
1.2011585021
1.1990837356
1.1971748304
1.1954460536
1.1939051714
1.1925539807
1.1913891545
1.1904034827
1.1895872353
1.1889293364
1.1884186237
1.1880450599
1.1878003991
1.1876788223
1.1886736408
1.1725512094
1.1737606337
1.1738801824
1.1741179717
1.1744634525
1.1749011231
1.1754108366
1.1759680315
1.1765448559
1.1771108598
1.1776336044
1.1780796053
1.1784146037
1.1786037789
1.1786120359
1.1784047296
1.1779509217
1.1772312416
1.1762567476
1.1751101725
1.1740274663
1.1742597766
1.2368233268
1.2360222085
1.2351283207
1.2340050643
1.2327845354
1.2314932809
1.2301181857
1.2286363087
1.2270271714
1.2252772486
1.2233811551
1.2213416958
1.2191697115
1.2168837982
1.2145095926
1.2120786579
1.2096258626
1.2071882900
1.2048048651
1.2025113037
1.2003392905
1.1983151922
1.1964589900
1.1947838933
1.1932966085
1.1919978577
1.1908832557
1.1899445569
1.1891709952
1.1885505176
1.1880710716
1.1877218184
1.1874938775
1.1873809922
1.1883890443
1.1747330159
1.1759726263
1.1760997902
1.1763527950
1.1767201572
1.1771850809
1.1777258664
1.1783162204
1.1789265037
1.1795244471
1.1800756353
1.1805441830
1.1808923587
1.1810795611
1.1810606376
1.1807833259
1.1801864810
1.1792014297
1.1777654302
1.1758703885
1.1737031653
1.1740232131
1.2376032340
1.2367826984
1.2351716799
1.2335864882
1.2321038716
1.2306744396
1.2292295450
1.2277128324
1.2260859034
1.2243266513
1.2224263485
1.2203870127
1.2182192952
1.2159425808
1.2135831588
1.2111733581
1.2087483262
1.2063450856
1.2040016823
1.2017532702
1.1996306329
1.1976591244
1.1958576289
1.1942382145
1.1928064600
1.1915619679
1.1904992691
1.1896090565
1.1888795102
1.1882975852
1.1878503240
1.1875260702
1.1873152921
1.1872112814
1.1882310037
1.1766687889
1.1779369119
1.1780714823
1.1783393649
1.1787282487
1.1792202274
1.1797923330
1.1804169617
1.1810632859
1.1816980633
1.1822860477
1.1827904831
1.1831721295
1.1833868746
1.1833815005
1.1830858162
1.1824000020
1.1811744381
1.1791817572
1.1760957578
1.1715575179
1.1719643507
1.2395288935
1.2386887720
1.2354623818
1.2331421558
1.2313599105
1.2298262095
1.2283560646
1.2268411665
1.2252221377
1.2234700344
1.2215756566
1.2195419848
1.2173809363
1.2151143819
1.2127701204
1.2103813983
1.2079842501
1.2056158242
1.2033125534
1.2011100052
1.1990376148
1.1971196081
1.1953737119
1.1938108526
1.1924354198
1.1912458655
1.1902356470
1.1893944017
1.1887092575
1.1881661852
1.1877513297
1.1874522215
1.1872586782
1.1871635374
1.1881926068
1.1783187421
1.1796135149
1.1797551303
1.1800372502
1.1804468793
1.1809652316
1.1815684203
1.1822280302
1.1829127671
1.1835894521
1.1842235250
1.1847796438
1.1852205874
1.1855042481
1.1855779201
1.1853659790
1.1847441375
1.1834815791
1.1811012058
1.1765259982
1.1671754116
1.1676632183
1.2435560807
1.2426903733
1.2356804756
1.2322983428
1.2303158851
1.2288228554
1.2274370121
1.2259944959
1.2244258872
1.2227055103
1.2208303107
1.2188097263
1.2166604024
1.2144060324
1.2120777844
1.2097105506
1.2073414297
1.2050077317
1.2027453081
1.2005884309
1.1985659874
1.1967011141
1.1950101388
1.1935033324
1.1921838339
1.1910487209
1.1900903934
1.1892975051
1.1886561550
1.1881513585
1.1877683932
1.1874940047
1.1873173780
1.1872309070
1.1882663293
1.1796465492
1.1809659652
1.1811140980
1.1814094778
1.1818385820
1.1823819969
1.1830152750
1.1837096928
1.1844341912
1.1851566740
1.1858448302
1.1864673161
1.1869935871
1.1873926725
1.1876318899
1.1876749825
1.1874822863
1.1870205276
1.1863021790
1.1855187109
1.1855758296
1.1938379336
1.2062393918
1.1988197896
1.2168552711
1.2270373285
1.2284847548
1.2285917366
1.2281550801
1.2274009355
1.2263928242
1.2251529246
1.2236955982
1.2220366253
1.2201957833
1.2181968510
1.2160635630
1.2138243271
1.2115135153
1.2091683422
1.2068273227
1.2045277109
1.2023051870
1.2001931955
1.1982197403
1.1964068969
1.1947701698
1.1933181196
1.1920527072
1.1909701630
1.1900617873
1.1893155002
1.1887163299
1.1882483463
1.1878960111
1.1876453380
1.1874849168
1.1874067208
1.1884449233
1.1806206799
1.1819625704
1.1821165155
1.1824238015
1.1828705393
1.1834369241
1.1840982640
1.1848259280
1.1855895876
1.1863588497
1.1871044312
1.1877999507
1.1884225931
1.1889531745
1.1893774434
1.1896886776
1.1898949444
1.1900396063
1.1902487645
1.1908418356
1.1926465923
1.1983775075
1.2055504402
1.1981509223
1.2118986019
1.2204884944
1.2240912873
1.2257375254
1.2262713191
1.2261045797
1.2254465136
1.2244131897
1.2230762262
1.2214860899
1.2196850429
1.2177125345
1.2155981092
1.2133757066
1.2110835636
1.2087610318
1.2064478120
1.2041816893
1.2019983349
1.1999299938
1.1980039197
1.1962412276
1.1946561896
1.1932561393
1.1920421536
1.1910094492
1.1901484856
1.1894460486
1.1888863952
1.1884528477
1.1881291343
1.1879005981
1.1877552896
1.1876847869
1.1887217036
1.1812154914
1.1825774644
1.1827363285
1.1830537655
1.1835156681
1.1841020472
1.1847882127
1.1855458904
1.1863457396
1.1871592837
1.1879603923
1.1887275377
1.1894449884
1.1901034226
1.1907023010
1.1912533762
1.1917877357
1.1923726410
1.1931423748
1.1943528823
1.1964870795
1.2004195549
1.2047685726
1.2047379832
1.2122829933
1.2182816576
1.2218793520
1.2239575816
1.2249402641
1.2251250143
1.2247125924
1.2238403166
1.2226042276
1.2210751468
1.2193113331
1.2173649973
1.2152704493
1.2130661061
1.2107935987
1.2084943539
1.2062089979
1.2039759930
1.2018306281
1.1998042299
1.1979232533
1.1962078329
1.1946711325
1.1933195733
1.1921532989
1.1911666352
1.1903491829
1.1896868997
1.1891633483
1.1887611729
1.1884634692
1.1882550033
1.1881233559
1.1880597890
1.1890909478
1.1814124466
1.1827918159
1.1829545239
1.1832799621
1.1837539389
1.1843564504
1.1850629771
1.1858457351
1.1866764088
1.1875283270
1.1883781742
1.1892085455
1.1900093387
1.1907784491
1.1915244808
1.1922695470
1.1930543107
1.1939493980
1.1950721120
1.1966064031
1.1988177036
1.2019810529
1.2054376690
1.2077557070
1.2128737059
1.2174701138
1.2207759135
1.2229318046
1.2241061355
1.2244829435
1.2242240268
1.2234615196
1.2222987183
1.2208165528
1.2190835901
1.2171605911
1.2150858152
1.2129003766
1.2106487691
1.2083738808
1.2061169670
1.2039166117
1.2018078306
1.1998213259
1.1979826368
1.1963110059
1.1948187018
1.1935112820
1.1923880856
1.1914426947
1.1906639797
1.1900372903
1.1895456087
1.1891710251
1.1888961261
1.1887052110
1.1885854913
1.1885279706
1.1895486032
1.1812009506
1.1825946311
1.1827599364
1.1830908546
1.1835732280
1.1841871703
1.1849084369
1.1857097524
1.1865636970
1.1874450703
1.1883327860
1.1892125531
1.1900781223
1.1909321606
1.1917889695
1.1926762038
1.1936381345
1.1947431074
1.1960913452
1.1978176782
1.2000765463
1.2029566263
1.2061458259
1.2091825438
1.2133272566
1.2172213763
1.2202885669
1.2224273037
1.2236777371
1.2241518584
1.2239793619
1.2232828764
1.2221666680
1.2207164515
1.2190068229
1.2171038824
1.2150483002
1.2128828743
1.2106537855
1.2084047387
1.2061771792
1.2040094833
1.2019363093
1.1999877073
1.1981882802
1.1965564107
1.1951037348
1.1938351816
1.1927494945
1.1918396976
1.1910941449
1.1904977351
1.1900330132
1.1896816577
1.1894258780
1.1892496322
1.1891398594
1.1890873739
1.1900928434
1.1805789567
1.1819833590
1.1821498624
1.1824834110
1.1829699843
1.1835899193
1.1843192927
1.1851312695
1.1859990686
1.1868985438
1.1878101693
1.1887215672
1.1896284105
1.1905363635
1.1914627029
1.1924382372
1.1935094198
1.1947438995
1.1962341590
1.1980930331
1.2004305014
1.2032810349
1.2064565111
1.2097392272
1.2135693208
1.2172025513
1.2201693357
1.2222994827
1.2235830197
1.2241007369
1.2239677330
1.2233023331
1.2222094936
1.2207774699
1.2190842110
1.2171983015
1.2151617009
1.2130177739
1.2108133082
1.2085920225
1.2063950891
1.2042604052