<VTKFile type="UnstructuredGrid" version="0.1">
	<UnstructuredGrid>
		<Piece NumberOfPoints="13548" NumberOfCells="3387">
			<CellData>
				<DataArray type="Int32" Name="ghost" NumberOfComponents="1" Format="ascii">
1
1
1
1
1
1
1
1
1
1
1
1
1
1
1
1
1
1
1
1
1
1
1
1
1
1
1
1
1
1
1
1
1
1
1
1
1
1
1
1
1
1
1
1
1
1
1
1
1
1
1
1
1
1
1
1
1
1
0
0
0
0
0
0
0
0
0
0
0
0
0
0
0
0
0
0
0
0
1
1
0
0
0
0
0
0
0
0
0
0
0
0
0
0
0
0
0
0
0
0
0
0
0
0
0
0
0
0
0
0
0
0
0
1
1
0
0
0
0
0
0
0
0
0
0
0
0
0
0
0
0
0
0
0
0
1
1
0
0
0
0
0
0
0
0
0
0
0
0
0
0
0
0
0
0
0
0
0
0
0
0
0
0
0
0
0
0
0
0
0
1
1
0
0
0
0
0
0
0
0
0
0
0
0
0
0
0
0
0
0
0
0
1
1
0
0
0
0
0
0
0
0
0
0
0
0
0
0
0
0
0
0
0
0
0
0
0
0
0
0
0
0
0
0
0
0
0
1
1
0
0
0
0
0
0
0
0
0
0
0
0
0
0
0
0
0
0
0
0
1
1
0
0
0
0
0
0
0
0
0
0
0
0
0
0
0
0
0
0
0
0
0
0
0
0
0
0
0
0
0
0
0
0
0
1
1
0
0
0
0
0
0
0
0
0
0
0
0
0
0
0
0
0
0
0
0
1
1
0
0
0
0
0
0
0
0
0
0
0
0
0
0
0
0
0
0
0
0
0
0
0
0
0
0
0
0
0
0
0
0
0
1
1
0
0
0
0
0
0
0
0
0
0
0
0
0
0
0
0
0
0
0
0
1
1
0
0
0
0
0
0
0
0
0
0
0
0
0
0
0
0
0
0
0
0
0
0
0
0
0
0
0
0
0
0
0
0
0
1
1
0
0
0
0
0
0
0
0
0
0
0
0
0
0
0
0
0
0
0
0
1
1
0
0
0
0
0
0
0
0
0
0
0
0
0
0
0
0
0
0
0
0
0
0
0
0
0
0
0
0
0
0
0
0
0
1
1
0
0
0
0
0
0
0
0
0
0
0
0
0
0
0
0
0
0
0
0
1
1
0
0
0
0
0
0
0
0
0
0
0
0
0
0
0
0
0
0
0
0
0
0
0
0
0
0
0
0
0
0
0
0
0
1
1
0
0
0
0
0
0
0
0
0
0
0
0
0
0
0
0
0
0
0
0
1
1
0
0
0
0
0
0
0
0
0
0
0
0
0
0
0
0
0
0
0
0
0
0
0
0
0
0
0
0
0
0
0
0
0
1
1
0
0
0
0
0
0
0
0
0
0
0
0
0
0
0
0
0
0
0
0
1
1
0
0
0
0
0
0
0
0
0
0
0
0
0
0
0
0
0
0
0
0
0
0
0
0
0
0
0
0
0
0
0
0
0
1
1
0
0
0
0
0
0
0
0
0
0
0
0
0
0
0
0
0
0
0
0
1
1
0
0
0
0
0
0
0
0
0
0
0
0
0
0
0
0
0
0
0
0
0
0
0
0
0
0
0
0
0
0
0
0
0
1
1
0
0
0
0
0
0
0
0
0
0
0
0
0
0
0
0
0
0
0
0
1
1
0
0
0
0
0
0
0
0
0
0
0
0
0
0
0
0
0
0
0
0
0
0
0
0
0
0
0
0
0
0
0
0
0
1
1
0
0
0
0
0
0
0
0
0
0
0
0
0
0
0
0
0
0
0
0
1
1
0
0
0
0
0
0
0
0
0
0
0
0
0
0
0
0
0
0
0
0
0
0
0
0
0
0
0
0
0
0
0
0
0
1
1
0
0
0
0
0
0
0
0
0
0
0
0
0
0
0
0
0
0
0
0
1
1
0
0
0
0
0
0
0
0
0
0
0
0
0
0
0
0
0
0
0
0
0
0
0
0
0
0
0
0
0
0
0
0
0
1
1
0
0
0
0
0
0
0
0
0
0
0
0
0
0
0
0
0
0
0
0
1
1
0
0
0
0
0
0
0
0
0
0
0
0
0
0
0
0
0
0
0
0
0
0
0
0
0
0
0
0
0
0
0
0
0
1
1
0
0
0
0
0
0
0
0
0
0
0
0
0
0
0
0
0
0
0
0
1
1
0
0
0
0
0
0
0
0
0
0
0
0
0
0
0
0
0
0
0
0
0
0
0
0
0
0
0
0
0
0
0
0
0
1
1
0
0
0
0
0
0
0
0
0
0
0
0
0
0
0
0
0
0
0
0
1
1
0
0
0
0
0
0
0
0
0
0
0
0
0
0
0
0
0
0
0
0
0
0
0
0
0
0
0
0
0
0
0
0
0
1
1
0
0
0
0
0
0
0
0
0
0
0
0
0
0
0
0
0
0
0
0
1
1
0
0
0
0
0
0
0
0
0
0
0
0
0
0
0
0
0
0
0
0
0
0
0
0
0
0
0
0
0
0
0
0
0
1
1
0
0
0
0
0
0
0
0
0
0
0
0
0
0
0
0
0
0
0
0
1
1
0
0
0
0
0
0
0
0
0
0
0
0
0
0
0
0
0
0
0
0
0
0
0
0
0
0
0
0
0
0
0
0
0
1
1
0
0
0
0
0
0
0
0
0
0
0
0
0
0
0
0
0
0
0
0
1
1
0
0
0
0
0
0
0
0
0
0
0
0
0
0
0
0
0
0
0
0
0
0
0
0
0
0
0
0
0
0
0
0
0
1
1
0
0
0
0
0
0
0
0
0
0
0
0
0
0
0
0
0
0
0
0
1
1
0
0
0
0
0
0
0
0
0
0
0
0
0
0
0
0
0
0
0
0
0
0
0
0
0
0
0
0
0
0
0
0
0
1
1
0
0
0
0
0
0
0
0
0
0
0
0
0
0
0
0
0
0
0
0
1
1
0
0
0
0
0
0
0
0
0
0
0
0
0
0
0
0
0
0
0
0
0
0
0
0
0
0
0
0
0
0
0
0
0
1
1
0
0
0
0
0
0
0
0
0
0
0
0
0
0
0
0
0
0
0
0
1
1
0
0
0
0
0
0
0
0
0
0
0
0
0
0
0
0
0
0
0
0
0
0
0
0
0
0
0
0
0
0
0
0
0
1
1
0
0
0
0
0
0
0
0
0
0
0
0
0
0
0
0
0
0
0
0
1
1
0
0
0
0
0
0
0
0
0
0
0
0
0
0
0
0
0
0
0
0
0
0
0
0
0
0
0
0
0
0
0
0
0
1
1
0
0
0
0
0
0
0
0
0
0
0
0
0
0
0
0
0
0
0
0
0
1
1
0
0
0
0
0
0
0
0
0
0
0
0
0
0
0
0
0
0
0
0
0
0
0
0
0
0
0
0
0
0
0
0
0
0
1
1
0
0
0
0
0
0
0
0
0
0
0
0
0
0
0
0
0
0
0
0
0
0
0
0
0
0
0
0
0
0
0
0
0
0
0
0
0
0
0
0
0
0
0
0
0
0
0
0
0
0
0
0
0
0
0
0
0
1
1
0
0
0
0
0
0
0
0
0
0
0
0
0
0
0
0
0
0
0
0
0
0
0
0
0
0
0
0
0
0
0
0
0
0
0
0
0
0
0
0
0
0
0
0
0
0
0
0
0
0
0
0
0
0
0
0
0
1
1
0
0
0
0
0
0
0
0
0
0
0
0
0
0
0
0
0
0
0
0
0
0
0
0
0
0
0
0
0
0
0
0
0
0
0
0
0
0
0
0
0
0
0
0
0
0
0
0
0
0
0
0
0
0
0
0
0
1
1
0
0
0
0
0
0
0
0
0
0
0
0
0
0
0
0
0
0
0
0
0
0
0
0
0
0
0
0
0
0
0
0
0
0
0
0
0
0
0
0
0
0
0
0
0
0
0
0
0
0
0
0
0
0
0
0
0
1
1
0
0
0
0
0
0
0
0
0
0
0
0
0
0
0
0
0
0
0
0
0
0
0
0
0
0
0
0
0
0
0
0
0
0
0
0
0
0
0
0
0
0
0
0
0
0
0
0
0
0
0
0
0
0
0
0
0
1
1
0
0
0
0
0
0
0
0
0
0
0
0
0
0
0
0
0
0
0
0
0
0
0
0
0
0
0
0
0
0
0
0
0
0
0
0
0
0
0
0
0
0
0
0
0
0
0
0
0
0
0
0
0
0
0
0
0
1
1
0
0
0
0
0
0
0
0
0
0
0
0
0
0
0
0
0
0
0
0
0
0
0
0
0
0
0
0
0
0
0
0
0
0
0
0
0
0
0
0
0
0
0
0
0
0
0
0
0
0
0
0
0
0
0
0
0
1
1
0
0
0
0
0
0
0
0
0
0
0
0
0
0
0
0
0
0
0
0
0
0
0
0
0
0
0
0
0
0
0
0
0
0
0
0
0
0
0
0
0
0
0
0
0
0
0
0
0
0
0
0
0
0
0
0
0
1
1
0
0
0
0
0
0
0
0
0
0
0
0
0
0
0
0
0
0
0
0
0
0
0
0
0
0
0
0
0
0
0
0
0
0
0
0
0
0
0
0
0
0
0
0
0
0
0
0
0
0
0
0
0
0
0
0
0
1
1
0
0
0
0
0
0
0
0
0
0
0
0
0
0
0
0
0
0
0
0
0
0
0
0
0
0
0
0
0
0
0
0
0
0
0
0
0
0
0
0
0
0
0
0
0
0
0
0
0
0
0
0
0
0
0
0
0
1
1
0
0
0
0
0
0
0
0
0
0
0
0
0
0
0
0
0
0
0
0
0
1
1
0
0
0
0
0
0
0
0
0
0
0
0
0
0
0
0
0
0
0
0
0
0
0
0
0
0
0
0
0
0
0
0
0
0
1
1
0
0
0
0
0
0
0
0
0
0
0
0
0
0
0
0
0
0
0
0
1
1
0
0
0
0
0
0
0
0
0
0
0
0
0
0
0
0
0
0
0
0
0
0
0
0
0
0
0
0
0
0
0
0
0
1
1
0
0
0
0
0
0
0
0
0
0
0
0
0
0
0
0
0
0
0
0
1
1
0
0
0
0
0
0
0
0
0
0
0
0
0
0
0
0
0
0
0
0
0
0
0
0
0
0
0
0
0
0
0
0
0
1
1
0
0
0
0
0
0
0
0
0
0
0
0
0
0
0
0
0
0
0
0
1
1
0
0
0
0
0
0
0
0
0
0
0
0
0
0
0
0
0
0
0
0
0
0
0
0
0
0
0
0
0
0
0
0
0
1
1
0
0
0
0
0
0
0
0
0
0
0
0
0
0
0
0
0
0
0
0
1
1
0
0
0
0
0
0
0
0
0
0
0
0
0
0
0
0
0
0
0
0
0
0
0
0
0
0
0
0
0
0
0
0
0
1
1
0
0
0
0
0
0
0
0
0
0
0
0
0
0
0
0
0
0
0
0
1
1
0
0
0
0
0
0
0
0
0
0
0
0
0
0
0
0
0
0
0
0
0
0
0
0
0
0
0
0
0
0
0
0
0
1
1
0
0
0
0
0
0
0
0
0
0
0
0
0
0
0
0
0
0
0
0
1
1
0
0
0
0
0
0
0
0
0
0
0
0
0
0
0
0
0
0
0
0
0
0
0
0
0
0
0
0
0
0
0
0
0
1
1
0
0
0
0
0
0
0
0
0
0
0
0
0
0
0
0
0
0
0
0
1
1
0
0
0
0
0
0
0
0
0
0
0
0
0
0
0
0
0
0
0
0
0
0
0
0
0
0
0
0
0
0
0
0
0
1
1
0
0
0
0
0
0
0
0
0
0
0
0
0
0
0
0
0
0
0
0
1
1
0
0
0
0
0
0
0
0
0
0
0
0
0
0
0
0
0
0
0
0
0
0
0
0
0
0
0
0
0
0
0
0
0
1
1
0
0
0
0
0
0
0
0
0
0
0
0
0
0
0
0
0
0
0
0
1
1
0
0
0
0
0
0
0
0
0
0
0
0
0
0
0
0
0
0
0
0
0
0
0
0
0
0
0
0
0
0
0
0
0
1
1
0
0
0
0
0
0
0
0
0
0
0
0
0
0
0
0
0
0
0
0
1
1
0
0
0
0
0
0
0
0
0
0
0
0
0
0
0
0
0
0
0
0
0
0
0
0
0
0
0
0
0
0
0
0
0
1
1
0
0
0
0
0
0
0
0
0
0
0
0
0
0
0
0
0
0
0
0
1
1
0
0
0
0
0
0
0
0
0
0
0
0
0
0
0
0
0
0
0
0
0
0
0
0
0
0
0
0
0
0
0
0
0
1
1
0
0
0
0
0
0
0
0
0
0
0
0
0
0
0
0
0
0
0
0
1
1
0
0
0
0
0
0
0
0
0
0
0
0
0
0
0
0
0
0
0
0
0
0
0
0
0
0
0
0
0
0
0
0
0
1
1
0
0
0
0
0
0
0
0
0
0
0
0
0
0
0
0
0
0
0
0
1
1
0
0
0
0
0
0
0
0
0
0
0
0
0
0
0
0
0
0
0
0
0
0
0
0
0
0
0
0
0
0
0
0
0
1
1
0
0
0
0
0
0
0
0
0
0
0
0
0
0
0
0
0
0
0
0
1
1
0
0
0
0
0
0
0
0
0
0
0
0
0
0
0
0
0
0
0
0
0
0
0
0
0
0
0
0
0
0
0
0
0
1
1
0
0
0
0
0
0
0
0
0
0
0
0
0
0
0
0
0
0
0
0
1
1
0
0
0
0
0
0
0
0
0
0
0
0
0
0
0
0
0
0
0
0
0
0
0
0
0
0
0
0
0
0
0
0
0
1
1
0
0
0
0
0
0
0
0
0
0
0
0
0
0
0
0
0
0
0
0
1
1
0
0
0
0
0
0
0
0
0
0
0
0
0
0
0
0
0
0
0
0
0
0
0
0
0
0
0
0
0
0
0
0
0
1
1
0
0
0
0
0
0
0
0
0
0
0
0
0
0
0
0
0
0
0
0
1
1
0
0
0
0
0
0
0
0
0
0
0
0
0
0
0
0
0
0
0
0
0
0
0
0
0
0
0
0
0
0
0
0
0
1
1
0
0
0
0
0
0
0
0
0
0
0
0
0
0
0
0
0
0
0
0
1
1
0
0
0
0
0
0
0
0
0
0
0
0
0
0
0
0
0
0
0
0
0
0
0
0
0
0
0
0
0
0
0
0
0
1
1
0
0
0
0
0
0
0
0
0
0
0
0
0
0
0
0
0
0
0
0
1
1
0
0
0
0
0
0
0
0
0
0
0
0
0
0
0
0
0
0
0
0
0
0
0
0
0
0
0
0
0
0
0
0
0
1
1
0
0
0
0
0
0
0
0
0
0
0
0
0
0
0
0
0
0
0
0
1
1
0
0
0
0
0
0
0
0
0
0
0
0
0
0
0
0
0
0
0
0
0
0
0
0
0
0
0
0
0
0
0
0
0
1
1
0
0
0
0
0
0
0
0
0
0
0
0
0
0
0
0
0
0
0
0
1
1
0
0
0
0
0
0
0
0
0
0
0
0
0
0
0
0
0
0
0
0
0
0
0
0
0
0
0
0
0
0
0
0
0
1
1
1
1
1
1
1
1
1
1
1
1
1
1
1
1
1
1
1
1
1
1
1
1
1
1
1
1
1
1
1
1
1
1
1
1
1
1
1
1
1
1
1
1
1
1
1
1
1
1
1
1
1
1
1
1
1
1
				</DataArray>
				<DataArray type="Float64" Name="h" NumberOfComponents="1" Format="ascii">
1.1323863886
1.1317638149
1.1319053728
1.1321857124
1.1325993133
1.1331379181
1.1337905333
1.1345435133
1.1353807023
1.1362835465
1.1372313752
1.1382017862
1.1391710160
1.1401145284
1.1410077083
1.1418265191
1.1425483278
1.1431527417
1.1436223239
1.1439433220
1.1441062519
1.1441062519
1.2161085942
1.2172518387
1.2170843344
1.2167804109
1.2163582312
1.2158445135
1.2152734323
1.2146840638
1.2141188685
1.2136208328
1.2132298891
1.2129808394
1.2129010481
1.2130086495
1.2133124074
1.2138116294
1.2144970482
1.2153522560
1.2163550690
1.2174793299
1.2186963296
1.2199759411
1.2212881180
1.2226034589
1.2238936773
1.2251326168
1.2262961239
1.2273621249
1.2283114152
1.2291272135
1.2297951437
1.2303039862
1.2306451187
1.2308125069
1.2308125069
1.1317638149
1.1311791831
1.1313237373
1.1316100218
1.1320323917
1.1325824020
1.1332488061
1.1340176340
1.1348723448
1.1357939430
1.1367612688
1.1377514047
1.1387400643
1.1397021924
1.1406126921
1.1414470989
1.1421824153
1.1427979551
1.1432760551
1.1436028088
1.1437686358
1.1441062519
1.2172518387
1.2184213391
1.2182556192
1.2179537882
1.2175319362
1.2170140864
1.2164314844
1.2158204695
1.2152213453
1.2146758218
1.2142235903
1.2139002476
1.2137348621
1.2137479439
1.2139510061
1.2143462341
1.2149271051
1.2156796542
1.2165837438
1.2176148081
1.2187452819
1.2199457764
1.2211866255
1.2224385153
1.2236730223
1.2248636877
1.2259859441
1.2270172423
1.2279378842
1.2287306070
1.2293805948
1.2298762576
1.2302086833
1.2303716415
1.2308125069
1.1318608160
1.1312853334
1.1314302583
1.1317172718
1.1321407020
1.1326920650
1.1333600642
1.1341306705
1.1349872773
1.1359108206
1.1368800757
1.1378720585
1.1388624191
1.1398260683
1.1407378833
1.1415733827
1.1423095699
1.1429257701
1.1434043387
1.1437313899
1.1438973608
1.1442290312
1.2175043587
1.2186782923
1.2185103475
1.2182042493
1.2177762596
1.2172506332
1.2166588859
1.2160376431
1.2154274888
1.2148703914
1.2144062657
1.2140708899
1.2138934696
1.2138946118
1.2140858531
1.2144693999
1.2150388133
1.2157802197
1.2166735714
1.2176943861
1.2188151706
1.2200065960
1.2212390440
1.2224832339
1.2237107638
1.2248951856
1.2260119331
1.2270384523
1.2279550352
1.2287444072
1.2293917400
1.2298854316
1.2302165598
1.2303788874
1.2308399627
1.1320514695
1.1314942914
1.1316399711
1.1319284691
1.1323540602
1.1329081822
1.1335794391
1.1343536862
1.1352141780
1.1361417138
1.1371149260
1.1381107041
1.1391045907
1.1400714033
1.1409859589
1.1418237450
1.1425617629
1.1431793589
1.1436589222
1.1439866078
1.1441528865
1.1444724987
1.2179976128
1.2191804597
1.2190082954
1.2186940971
1.2182544342
1.2177139758
1.2171047228
1.2164638152
1.2158323455
1.2152527542
1.2147653710
1.2144063210
1.2142050892
1.2141825101
1.2143502971
1.2147107880
1.2152577148
1.2159773676
1.2168498500
1.2178508160
1.2189528885
1.2201268346
1.2213431111
1.2225724901
1.2237866025
1.2249590153
1.2260651626
1.2270824805
1.2279912431
1.2287741544
1.2294163652
1.2299062525
1.2302348769
1.2303959894
1.2308963275
1.1323321706
1.1318023624
1.1319491858
1.1322399337
1.1326688012
1.1332271101
1.1339033145
1.1346830871
1.1355494913
1.1364831150
1.1374623822
1.1384639861
1.1394632933
1.1404349850
1.1413537825
1.1421951223
1.1429359973
1.1435557804
1.1440369103
1.1443655987
1.1445323659
1.1448335601
1.2187243908
1.2199199193
1.2197414574
1.2194151575
1.2189580466
1.2183954107
1.2177599724
1.2170896374
1.2164262548
1.2158129683
1.2152907293
1.2148961865
1.2146592537
1.2146011221
1.2147338277
1.2150599523
1.2155734778
1.2162609224
1.2171025943
1.2180743289
1.2191489008
1.2202972012
1.2214897835
1.2226974849
1.2238919752
1.2250468368
1.2261374990
1.2271413799
1.2280387251
1.2288122062
1.2294469424
1.2299312798
1.2302562537
1.2304155985
1.2309722737
1.1326975483
1.1322040365
1.1323523992
1.1326461747
1.1330794530
1.1336434039
1.1343262840
1.1351135301
1.1359879425
1.1369298319
1.1379173417
1.1389268953
1.1399336275
1.1409120247
1.1418366754
1.1426829391
1.1434277907
1.1440506329
1.1445339635
1.1448640680
1.1450315276
1.1453075793
1.2196735286
1.2208844606
1.2206975230
1.2203549139
1.2198742898
1.2192817830
1.2186111045
1.2179012071
1.2171949717
1.2165364996
1.2159675873
1.2155255962
1.2152410244
1.2151355459
1.2152216568
1.2155022937
1.2159717548
1.2166168375
1.2174180949
1.2183515759
1.2193902315
1.2205050951
1.2216668285
1.2228463395
1.2240153368
1.2251474137
1.2262179864
1.2272044444
1.2280869925
1.2288482569
1.2294733139
1.2299504683
1.2302707222
1.2304277878
1.2310551399
1.1331405371
1.1326920516
1.1328423577
1.1331399568
1.1335788110
1.1341499018
1.1348412433
1.1356379794
1.1365225844
1.1374750192
1.1384730712
1.1394928302
1.1405091254
1.1414961977
1.1424284512
1.1432811384
1.1440312009
1.1446580693
1.1451443085
1.1454762907
1.1456446708
1.1458883879
1.2208298208
1.2220575274
1.2218598350
1.2214964983
1.2209860012
1.2203555866
1.2196402574
1.2188803307
1.2181200266
1.2174046835
1.2167771841
1.2162758013
1.2159317753
1.2157673782
1.2157956978
1.2160201178
1.2164353057
1.2170283700
1.2177801312
1.2186668688
1.2196617207
1.2207358689
1.2218600859
1.2230053486
1.2241434000
1.2252478360
1.2262940497
1.2272593913
1.2281240122
1.2288704808
1.2294838202
1.2299522837
1.2302668327
1.2304211531
1.2311302412
1.1336526886
1.1332576957
1.1334103606
1.1337126018
1.1341582303
1.1347380061
1.1354396568
1.1362479809
1.1371450615
1.1381104400
1.1391214737
1.1401538401
1.1411819949
1.1421798634
1.1431216174
1.1439823623
1.1447389839
1.1453709344
1.1458608544
1.1461952173
1.1463647646
1.1465684035
1.2221745724
1.2234188074
1.2232079886
1.2228193089
1.2222723104
1.2215956502
1.2208259701
1.2200053097
1.2191795694
1.2183956287
1.2176977136
1.2171252131
1.2167102606
1.2164758326
1.2164357139
1.2165938106
1.2169451849
1.2174772705
1.2181711561
1.2190033499
1.2199471727
1.2209739501
1.2220545595
1.2231600394
1.2242621598
1.2253345105
1.2263524522
1.2272932873
1.2281371042
1.2288664046
1.2294661505
1.2299245362
1.2302324770
1.2303836298
1.2311819246
1.1342241322
1.1338907681
1.1340462196
1.1343539477
1.1348075908
1.1353976562
1.1361115446
1.1369336534
1.1378456120
1.1388264735
1.1398530872
1.1409006341
1.1419431167
1.1429540728
1.1439073791
1.1447779495
1.1455425861
1.1461807538
1.1466751755
1.1470124454
1.1471834148
1.1473386108
1.2236851462
1.2249438634
1.2247174945
1.2242987369
1.2237084572
1.2229770753
1.2221432632
1.2212511808
1.2203487801
1.2194848045
1.2187050869
1.2180503310
1.2175537082
1.2172389779
1.2171206846
1.2172033084
1.2174823082
1.2179454244
1.2185739930
1.2193447307
1.2202311232
1.2212046249
1.2222362064
1.2232969592
1.2243586737
1.2253949282
1.2263810473
1.2272942835
1.2281146593
1.2288246077
1.2294090285
1.2298560541
1.2301565529
1.2303041524
1.2311954730
1.1348437456
1.1345797328
1.1347384138
1.1350525038
1.1355154497
1.1361174788
1.1368456223
1.1376838265
1.1386132049
1.1396122459
1.1406572104
1.1417226973
1.1427821650
1.1438086787
1.1447757448
1.1456580285
1.1464322157
1.1470777756
1.1475775282
1.1479182215
1.1480908555
1.1481885902
1.2253349515
1.2266042103
1.2263598767
1.2259063071
1.2252659991
1.2244715287
1.2235640314
1.2225902188
1.2216004859
1.2206457693
1.2197737661
1.2190266763
1.2184388254
1.2180348127
1.2178299277
1.2178292604
1.2180286308
1.2184160394
1.2189730238
1.2196764716
1.2205000033
1.2214151823
1.2223930593
1.2234047726
1.2244221333
1.2254187112
1.2263698009
1.2272526144
1.2280471170
1.2287356822
1.2293031562
1.2297376158
1.2300298869
1.2301735729
1.2311582351
1.1354995306
1.1353120837
1.1354744520
1.1357958116
1.1362694000
1.1368851362
1.1376296462
1.1384863757
1.1394358596
1.1404559460
1.1415222158
1.1426085902
1.1436878833
1.1447325884
1.1457157531
1.1466117231
1.1473970229
1.1480511200
1.1485569642
1.1489015214
1.1490760125
1.1491066219
1.2270942643
1.2283682394
1.2281036008
1.2276106190
1.2269137733
1.2260482353
1.2250580738
1.2239930057
1.2229062654
1.2218513009
1.2208779072
1.2200299288
1.2193429237
1.2188423367
1.2185441705
1.2184540254
1.2185680927
1.2188745327
1.2193550178
1.2199865528
1.2207428566
1.2215955800
1.2225158451
1.2234748388
1.2244444048
1.2253981206
1.2263112726
1.2271610570
1.2279274063
1.2285926580
1.2291416278
1.2295623533
1.2298456322
1.2299850546
1.2310601998
1.1361787432
1.1360744670
1.1362409963
1.1365705664
1.1370561900
1.1376874537
1.1384505431
1.1393283567
1.1403007887
1.1413449660
1.1424356936
1.1435461054
1.1446482558
1.1457139486
1.1467156622
1.1476273295
1.1484252591
1.1490889135
1.1496014347
1.1499501190
1.1501265467
1.1500797757
1.2289301668
1.2302013001
1.2299141665
1.2293774687
1.2286180721
1.2276742295
1.2265934394
1.2254288801
1.2242370027
1.2230740487
1.2219920977
1.2210367338
1.2202447615
1.2196425196
1.2192463748
1.2190625849
1.2190875283
1.2193094334
1.2197100201
1.2202663490
1.2209521975
1.2217392873
1.2225988123
1.2235020246
1.2244208287
1.2253288456
1.2262013944
1.2270157010
1.2277517082
1.2283917604
1.2289206816
1.2293265018
1.2296000150
1.2297348166
1.2308948802
1.1368681767
1.1368529431
1.1370241225
1.1373628757
1.1378619785
1.1385106657
1.1392946529
1.1401962456
1.1411946329
1.1422661365
1.1433846835
1.1445225008
1.1456507473
1.1467403920
1.1477631973
1.1486925590
1.1495044919
1.1501784571
1.1506978947
1.1510506278
1.1512288495
1.1510939804
1.2308069950
1.2320662880
1.2317546763
1.2311703979
1.2303431844
1.2293149056
1.2281369987
1.2268665359
1.2255635102
1.2242871696
1.2230919887
1.2220253136
1.2211251465
1.2204186097
1.2199223039
1.2196429399
1.2195770004
1.2197126539
1.2200315700
1.2205107973
1.2211241382
1.2218433781
1.2226397988
1.2234847524
1.2243502550
1.2252100295
1.2260394929
1.2268159695
1.2275194786
1.2281324347
1.2286397287
1.2290294298
1.2292923667
1.2294221672
1.2306594213
1.1375545805
1.1376333923
1.1378097226
1.1381586574
1.1386727272
1.1393408017
1.1401481029
1.1410762998
1.1421038105
1.1432060685
1.1443560177
1.1455248472
1.1466826593
1.1477993999
1.1488459176
1.1497948887
1.1506219230
1.1513064693
1.1518324504
1.1521885325
1.1523679931
1.1521340576
1.2326877845
1.2339252370
1.2335873590
1.2329521226
1.2320527294
1.2309352696
1.2296556254
1.2282751370
1.2268575706
1.2254652839
1.2241551519
1.2229762072
1.2219675236
1.2211568150
1.2205607954
1.2201863146
1.2200298795
1.2200794611
1.2203165753
1.2207181960
1.2212581246
1.2219082210
1.2226398886
1.2234246367
1.2242346681
1.2250438918
1.2258279143
1.2265642520
1.2272330907
1.2278170004
1.2283010171
1.2286733138
1.2289248048
1.2290491876
1.2303543162
1.1382249504
1.1384017970
1.1385837866
1.1389439197
1.1394744808
1.1401639685
1.1409970906
1.1419548407
1.1430148094
1.1441514664
1.1453366695
1.1465404240
1.1477315780
1.1488788093
1.1499517714
1.1509221471
1.1517649570
1.1524596252
1.1529907239
1.1533483721
1.1535278054
1.1531838684
1.2345349918
1.2357401910
1.2353743249
1.2346851447
1.2337101531
1.2325003627
1.2311165835
1.2296246889
1.2280922975
1.2265848211
1.2251613927
1.2238725400
1.2227581930
1.2218464424
1.2211538497
1.2206871620
1.2204427870
1.2204083605
1.2205651512
1.2208900052
1.2213567146
1.2219372413
1.2226031680
1.2233262421
1.2240789533
1.2248355072
1.2255718174
1.2262657128
1.2268976594
1.2274504905
1.2279094856
1.2282630023
1.2285021054
1.2286206086
1.2299832822
1.1388668939
1.1391445877
1.1393327466
1.1397051029
1.1402537032
1.1409666750
1.1418281987
1.1428185673
1.1439145087
1.1450894718
1.1463141287
1.1475571388
1.1487858567
1.1499673637
1.1510697198
1.1520632041
1.1529218616
1.1536249163
1.1541577453
1.1545130456
1.1546895271
1.1542254308
1.2363118508
1.2374746908
1.2370788054
1.2363327052
1.2352794489
1.2339758274
1.2324879976
1.2308864420
1.2292424776
1.2276242873
1.2260929327
1.2247001023
1.2234862781
1.2224796560
1.2216963676
1.2211428007
1.2208151342
1.2207005593
1.2207800176
1.2210301988
1.2214248966
1.2219362263
1.2225360286
1.2231963943
1.2238902247
1.2245921561
1.2252785518
1.2259276974
1.2265204761
1.2270401130
1.2274722472
1.2278055182
1.2280312186
1.2281433334
1.2295527380
1.1394689979
1.1398490113
1.1400438429
1.1404294405
1.1409976270
1.1417361685
1.1426287212
1.1436548807
1.1447905102
1.1460080081
1.1472767726
1.1485639431
1.1498350888
1.1510552656
1.1521903737
1.1532084700
1.1540815922
1.1547882387
1.1553158499
1.1556612103
1.1558292429
1.1552361592
1.2379849491
1.2390964623
1.2386673362
1.2378604433
1.2367264359
1.2353289516
1.2337397556
1.2320336904
1.2302852627
1.2285648353
1.2269348324
1.2254476163
1.2241438172
1.2230514447
1.2221859295
1.2215530552
1.2211486513
1.2209593863
1.2209658454
1.2211445519
1.2214693421
1.2219125562
1.2224463948
1.2230434176
1.2236770822
1.2243226103
1.2249569760
1.2255590859
1.2261103959
1.2265946690
1.2269980361
1.2273095280
1.2275207532
1.2276259302
1.2290712346
1.1400211949
1.1405035080
1.1407055007
1.1411053319
1.1416946234
1.1424608048
1.1433870424
1.1444522803
1.1456315595
1.1468962372
1.1482143748
1.1495514144
1.1508707965
1.1521349493
1.1533064489
1.1543494519
1.1552336929
1.1559375139
1.1564498037
1.1567728838
1.1569222533
1.1561927028
1.2395265828
1.2405798533
1.2401111733
1.2392369497
1.2380188335
1.2365285743
1.2348434101
1.2330417185
1.2312001488
1.2293902347
1.2276749194
1.2261065783
1.2247255338
1.2235592963
1.2226223836
1.2219197703
1.2214468325
1.2211897037
1.2211286176
1.2212399825
1.2214977332
1.2218745323
1.2223430576
1.2228764816
1.2234489784
1.2240365231
1.2246168754
1.2251697388
1.2256773111
1.2261240522
1.2264967276
1.2267848795
1.2269805270
1.2270781897
1.2285489455
1.1405150795
1.1410980359
1.1413076504
1.1417226559
1.1423345075
1.1431303494
1.1440929352
1.1452006577
1.1464278347
1.1477448485
1.1491184101
1.1505121089
1.1518868199
1.1532011722
1.1544126693
1.1554821521
1.1563754876
1.1570675167
1.1575477475
1.1578262185
1.1579364990
1.1570663704
1.2409186916
1.2419098250
1.2413880595
1.2404340228
1.2391258977
1.2375446602
1.2357719153
1.2338877134
1.2319689876
1.2300868963
1.2283037426
1.2266711326
1.2252285740
1.2240028025
1.2230073475
1.2222462315
1.2217142729
1.2213971727
1.2212748829
1.2213237714
1.2215179794
1.2218305961
1.2222349100
1.2227048587
1.2232155030
1.2237437462
1.2242683132
1.2247698852
1.2252315757
1.2256387057
1.2259788244
1.2262421101
1.2264210915
1.2265106585
1.2279971166
1.1409440315
1.1416242332
1.1418418858
1.1422729224
1.1429086822
1.1437361095
1.1447376741
1.1458913782
1.1471709866
1.1485460593
1.1499820304
1.1514405040
1.1528789182
1.1542508796
1.1555104250
1.1566114592
1.1575118468
1.1581794890
1.1586013967
1.1587960060
1.1588256345
1.1578153688
1.2421600059
1.2430891487
1.2424843825
1.2414262325
1.2400173606
1.2383475526
1.2364994070
1.2345509556
1.2325763848
1.2306442952
1.2288149310
1.2271382611
1.2256525251
1.2243835132
1.2233439560
1.2225368297
1.2219562419
1.2215877589
1.2214111978
1.2214030129
1.2215376564
1.2217887767
1.2221304069
1.2225374063
1.2229858913
1.2234538669
1.2239211991
1.2243697221
1.2247836351
1.2251492814
1.2254551408
1.2256921516
1.2258534507
1.2259343668
1.2274277172
1.1413034517
1.1420757006
1.1423017453
1.1427495517
1.1434104148
1.1442712028
1.1453142816
1.1465174928
1.1478543105
1.1492937253
1.1508000956
1.1523325382
1.1538447814
1.1552879600
1.1566086055
1.1577506354
1.1586591333
1.1592878022
1.1596125200
1.1596547025
1.1595159778
1.1583723854
1.2432778176
1.2441502299
1.2433951720
1.2421866942
1.2406592031
1.2389051342
1.2369997464
1.2350122943
1.2330096511
1.2310550891
1.2292052603
1.2275077570
1.2259992800
1.2247047093
1.2236366052
1.2227966415
1.2221781702
1.2217671916
1.2215435895
1.2214840444
1.2215634502
1.2217561329
1.2220370132
1.2223820222
1.2227684898
1.2231756841
1.2235847752
1.2239789121
1.2243435354
1.2246661602
1.2249363336
1.2251458707
1.2252886090
1.2253603798
1.2268529201
1.1415907817
1.1424480734
1.1426827799
1.1431479352
1.1438348830
1.1447305718
1.1458174911
1.1470736306
1.1484725164
1.1499829307
1.1515679925
1.1531851539
1.1547874871
1.1563205966
1.1577226968
1.1589245018
1.1598513016
1.1604297257
1.1606044327
1.1603757657
1.1598762514
1.1586148297
1.2443521838
1.2451794727
1.2441197926
1.2426766529
1.2410055627
1.2391784534
1.2372449066
1.2352540471
1.2332593034
1.2313156868
1.2294751042
1.2277825034
1.2262732160
1.2249715597
1.2238903920
1.2230305177
1.2223849715
1.2219404405
1.2216770954
1.2215720277
1.2216007187
1.2217383246
1.2219607889
1.2222452466
1.2225703762
1.2229168473
1.2232672738
1.2236062573
1.2239206131
1.2241991563
1.2244326195
1.2246137963
1.2247373061
1.2247995382
1.2262847728
1.1418051564
1.1427387534
1.1429822810
1.1434651517
1.1441788690
1.1451106362
1.1462433264
1.1475554237
1.1490207966
1.1506082592
1.1522811446
1.1539981599
1.1557101556
1.1573587015
1.1588737987
1.1601706064
1.1611465452
1.1616813001
1.1616468190
1.1609483902
1.1596493334
1.1582975629
1.2455684997
1.2463702819
1.2446436830
1.2428215269
1.2409842702
1.2391158836
1.2372040398
1.2352611227
1.2333206716
1.2314276588
1.2296293860
1.2279689367
1.2264811715
1.2251907195
1.2241111845
1.2232436125
1.2225813727
1.2221118220
1.2218157561
1.2216708869
1.2216534598
1.2217396026
1.2219063953
1.2221322811
1.2223973906
1.2226838977
1.2229759656
1.2232597538
1.2235235540
1.2237575790
1.2239538388
1.2241061859
1.2242100856
1.2242625283
1.2257352103
1.1419473370
1.1429469140
1.1431992825
1.1436999585
1.1444407271
1.1454091999
1.1465888293
1.1479587512
1.1494938333
1.1511644020
1.1529362575
1.1547687726
1.1566133610
1.1584104099
1.1600847880
1.1615379182
1.1626351564
1.1631862060
1.1629166207
1.1614418739
1.1583134681
1.1569161162
1.2473340086
1.2481405676
1.2448754155
1.2424558850
1.2404713150
1.2386460718
1.2368442967
1.2350239821
1.2331966711
1.2313996798
1.2296787423
1.2280776396
1.2266326928
1.2253702554
1.2243056428
1.2234413105
1.2227715976
1.2222846713
1.2219623049
1.2217830521
1.2217240694
1.2217625635
1.2218768402
1.2220467214
1.2222538507
1.2224819658
1.2227168397
1.2229462524
1.2231600354
1.2233498592
1.2235090685
1.2236326280
1.2237168902
1.2237594745
1.2252155955
1.1420193518
1.1430732055
1.1433342421
1.1438523832
1.1446196621
1.1456243266
1.1468507549
1.1482792955
1.1498868920
1.1516465098
1.1535263080
1.1554890297
1.1574901268
1.1594743232
1.1613700940
1.1630782388
1.1644482695
1.1652259540
1.1649250725
1.1625000822
1.1554999613
1.1541139597
1.2505448522
1.2514020251
1.2444547206
1.2412047959
1.2392535806
1.2376766599
1.2361392533
1.2345468613
1.2329034518
1.2312508014
1.2296411670
1.2281240389
1.2267402604
1.2255198135
1.2244809382
1.2236287218
1.2229591431
1.2224612131
1.2221181198
1.2219094416
1.2218133372
1.2218081663
1.2218735048
1.2219905840
1.2221425738
1.2223147832
1.2224946032
1.2226714454
1.2228366974
1.2229835058
1.2231065669
1.2232019759
1.2232669890
1.2232998633
1.2247365998
1.1420217752
1.1431171414
1.1433864302
1.1439212721
1.1447141290
1.1457540156
1.1470265313
1.1485139307
1.1501952232
1.1520462047
1.1540390314
1.1561420752
1.1583189537
1.1605269398
1.1627158294
1.1648267116
1.1667933381
1.1685543685
1.1700959333
1.1715883523
1.1738991532
1.1836915030
1.1961642731
1.1920601368
1.2198984520
1.2327883509
1.2356493763
1.2365660155
1.2365647283
1.2360083947
1.2350674552
1.2338578848
1.2324776858
1.2310141133
1.2295434204
1.2281287111
1.2268191702
1.2256503983
1.2246446443
1.2238109792
1.2231470579
1.2226428975
1.2222836252
1.2220499226
1.2219209545
1.2218762654
1.2218966993
1.2219648686
1.2220654305
1.2221852179
1.2223131907
1.2224403473
1.2225595959
1.2226655288
1.2227541689
1.2228227235
1.2228693385
1.2228928982
1.2243085252
1.1419570800
1.1430803329
1.1433573715
1.1439079684
1.1447251882
1.1457988321
1.1471156819
1.1486596367
1.1504120822
1.1523520562
1.1544561513
1.1566988963
1.1590525835
1.1614869769
1.1639706324
1.1664737453
1.1689758158
1.1714864269
1.1740910299
1.1770539517
1.1810991609
1.1886299709
1.1976497144
1.1933237417
1.2126978362
1.2243493165
1.2298824050
1.2327493264
1.2340360368
1.2343208522
1.2339406798
1.2331170228
1.2320108540
1.2307466523
1.2294231186
1.2281171673
1.2268868274
1.2257737960
1.2248047123
1.2239924665
1.2233369575
1.2228299629
1.2224579516
1.2222030470
1.2220454394
1.2219656667
1.2219457608
1.2219696433
1.2220233759
1.2220952279
1.2221756340
1.2222570846
1.2223339214
1.2224021032
1.2224589068
1.2225025948
1.2225321573
1.2225470738
1.2239408490
1.1418302199
1.1429672589
1.1432513719
1.1438163255
1.1446556202
1.1457598443
1.1471169403
1.1487124199
1.1505299244
1.1525515606
1.1547580596
1.1571295181
1.1596457066
1.1622863424
1.1650332683
1.1678740449
1.1708092619
1.1738695281
1.1771454868
1.1808399005
1.1853659074
1.1915124699
1.1981794717
1.2010818881
1.2124316914
1.2211491254
1.2267129618
1.2301692979
1.2320933374
1.2329164779
1.2329561671
1.2324514006
1.2315859978
1.2305036516
1.2293174436
1.2281144506
1.2269598573
1.2259006980
1.2249676041
1.2241761363
1.2235296834
1.2230218823
1.2226398998
1.2223671798
1.2221848812
1.2220745791
1.2220193382
1.2220042460
1.2220166269
1.2220460411
1.2220842489
1.2221250821
1.2221641755
1.2221987226
1.2222271352
1.2222486333
1.2222629743
1.2222701805
1.2236421995
1.1416440850
1.1427806819
1.1430708472
1.1436480859
1.1445062838
1.1456366926
1.1470282427
1.1486678224
1.1505409710
1.1526323539
1.1549260710
1.1574066038
1.1600593103
1.1628707625
1.1658309030
1.1689360133
1.1721939165
1.1756358452
1.1793336326
1.1834214542
1.1881169468
1.1936765049
1.1995899191
1.2046281398
1.2127174015
1.2197348302
1.2249365536
1.2285187534
1.2307391623
1.2318815574
1.2322064118
1.2319378564
1.2312614295
1.2303274888
1.2292563172
1.2281410970
1.2270518048
1.2260395108
1.2251378403
1.2243653259
1.2237270994
1.2232187976
1.2228286114
1.2225406336
1.2223373954
1.2222012539
1.2221161077
1.2220680234
1.2220453898
1.2220388576
1.2220413057
1.2220477003
1.2220547750
1.2220607740
1.2220650780
1.2220677272
1.2220691374
1.2220697991
1.2234208428
1.1414003777
1.1425225141
1.1428174896
1.1434044819
1.1442776600
1.1454287583
1.1468474271
1.1485215584
1.1504380640
1.1525834394
1.1549441477
1.1575076560
1.1602629509
1.1632007303
1.1663152387
1.1696063587
1.1730828788
1.1767705894
1.1807216772
1.1850218888
1.1897865140
1.1951000976
1.2007300693
1.2062981206
1.2129971858
1.2191030407
1.2239868543
1.2275569610
1.2299078992
1.2312276130
1.2317291874
1.2316175520
1.2310730094
1.2302463852
1.2292605757
1.2282116839
1.2271722283
1.2261961168
1.2253195801
1.2245620056
1.2239301448
1.2234211852
1.2230243695
1.2227246152
1.2225048172
1.2223479980
1.2222389531
1.2221646100
1.2221142173
1.2220792763
1.2220535267
1.2220328054
1.2220146923
1.2219982451
1.2219835972
1.2219714304
1.2219626779
1.2219581983
1.2232895664
1.1410998822
1.1421940563
1.1424924091
1.1430862256
1.1439698230
1.1451351922
1.1465723711
1.1482697941
1.1502151167
1.1523958240
1.1547996466
1.1574156268
1.1602346045
1.1632492653
1.1664556937
1.1698548715
1.1734548557
1.1772769001
1.1813611160
1.1857681448
1.1905685988
1.1957938228
1.2013142420
1.2069782910
1.2131481583
1.2188621986
1.2235834288
1.2271333916
1.2295391163
1.2309438093
1.2315360244
1.2315092335
1.2310394808
1.2302761358
1.2293422854
1.2283348346
1.2273270155
1.2263740953
1.2255142041
1.2247658751
1.2241376142
1.2236276728