<VTKFile type="UnstructuredGrid" version="0.1">
	<UnstructuredGrid>
		<Piece NumberOfPoints="13548" NumberOfCells="3387">
			<CellData>
				<DataArray type="Int32" Name="ghost" NumberOfComponents="1" Format="ascii">
1
1
1
1
1
1
1
1
1
1
1
1
1
1
1
1
1
1
1
1
1
1
1
1
1
1
1
1
1
1
1
1
1
1
1
1
1
1
1
1
1
1
1
1
1
1
1
1
1
1
1
1
1
1
1
1
1
1
0
0
0
0
0
0
0
0
0
0
0
0
0
0
0
0
0
0
0
0
1
1
0
0
0
0
0
0
0
0
0
0
0
0
0
0
0
0
0
0
0
0
0
0
0
0
0
0
0
0
0
0
0
0
0
1
1
0
0
0
0
0
0
0
0
0
0
0
0
0
0
0
0
0
0
0
0
1
1
0
0
0
0
0
0
0
0
0
0
0
0
0
0
0
0
0
0
0
0
0
0
0
0
0
0
0
0
0
0
0
0
0
1
1
0
0
0
0
0
0
0
0
0
0
0
0
0
0
0
0
0
0
0
0
1
1
0
0
0
0
0
0
0
0
0
0
0
0
0
0
0
0
0
0
0
0
0
0
0
0
0
0
0
0
0
0
0
0
0
1
1
0
0
0
0
0
0
0
0
0
0
0
0
0
0
0
0
0
0
0
0
1
1
0
0
0
0
0
0
0
0
0
0
0
0
0
0
0
0
0
0
0
0
0
0
0
0
0
0
0
0
0
0
0
0
0
1
1
0
0
0
0
0
0
0
0
0
0
0
0
0
0
0
0
0
0
0
0
1
1
0
0
0
0
0
0
0
0
0
0
0
0
0
0
0
0
0
0
0
0
0
0
0
0
0
0
0
0
0
0
0
0
0
1
1
0
0
0
0
0
0
0
0
0
0
0
0
0
0
0
0
0
0
0
0
1
1
0
0
0
0
0
0
0
0
0
0
0
0
0
0
0
0
0
0
0
0
0
0
0
0
0
0
0
0
0
0
0
0
0
1
1
0
0
0
0
0
0
0
0
0
0
0
0
0
0
0
0
0
0
0
0
1
1
0
0
0
0
0
0
0
0
0
0
0
0
0
0
0
0
0
0
0
0
0
0
0
0
0
0
0
0
0
0
0
0
0
1
1
0
0
0
0
0
0
0
0
0
0
0
0
0
0
0
0
0
0
0
0
1
1
0
0
0
0
0
0
0
0
0
0
0
0
0
0
0
0
0
0
0
0
0
0
0
0
0
0
0
0
0
0
0
0
0
1
1
0
0
0
0
0
0
0
0
0
0
0
0
0
0
0
0
0
0
0
0
1
1
0
0
0
0
0
0
0
0
0
0
0
0
0
0
0
0
0
0
0
0
0
0
0
0
0
0
0
0
0
0
0
0
0
1
1
0
0
0
0
0
0
0
0
0
0
0
0
0
0
0
0
0
0
0
0
1
1
0
0
0
0
0
0
0
0
0
0
0
0
0
0
0
0
0
0
0
0
0
0
0
0
0
0
0
0
0
0
0
0
0
1
1
0
0
0
0
0
0
0
0
0
0
0
0
0
0
0
0
0
0
0
0
1
1
0
0
0
0
0
0
0
0
0
0
0
0
0
0
0
0
0
0
0
0
0
0
0
0
0
0
0
0
0
0
0
0
0
1
1
0
0
0
0
0
0
0
0
0
0
0
0
0
0
0
0
0
0
0
0
1
1
0
0
0
0
0
0
0
0
0
0
0
0
0
0
0
0
0
0
0
0
0
0
0
0
0
0
0
0
0
0
0
0
0
1
1
0
0
0
0
0
0
0
0
0
0
0
0
0
0
0
0
0
0
0
0
1
1
0
0
0
0
0
0
0
0
0
0
0
0
0
0
0
0
0
0
0
0
0
0
0
0
0
0
0
0
0
0
0
0
0
1
1
0
0
0
0
0
0
0
0
0
0
0
0
0
0
0
0
0
0
0
0
1
1
0
0
0
0
0
0
0
0
0
0
0
0
0
0
0
0
0
0
0
0
0
0
0
0
0
0
0
0
0
0
0
0
0
1
1
0
0
0
0
0
0
0
0
0
0
0
0
0
0
0
0
0
0
0
0
1
1
0
0
0
0
0
0
0
0
0
0
0
0
0
0
0
0
0
0
0
0
0
0
0
0
0
0
0
0
0
0
0
0
0
1
1
0
0
0
0
0
0
0
0
0
0
0
0
0
0
0
0
0
0
0
0
1
1
0
0
0
0
0
0
0
0
0
0
0
0
0
0
0
0
0
0
0
0
0
0
0
0
0
0
0
0
0
0
0
0
0
1
1
0
0
0
0
0
0
0
0
0
0
0
0
0
0
0
0
0
0
0
0
1
1
0
0
0
0
0
0
0
0
0
0
0
0
0
0
0
0
0
0
0
0
0
0
0
0
0
0
0
0
0
0
0
0
0
1
1
0
0
0
0
0
0
0
0
0
0
0
0
0
0
0
0
0
0
0
0
1
1
0
0
0
0
0
0
0
0
0
0
0
0
0
0
0
0
0
0
0
0
0
0
0
0
0
0
0
0
0
0
0
0
0
1
1
0
0
0
0
0
0
0
0
0
0
0
0
0
0
0
0
0
0
0
0
1
1
0
0
0
0
0
0
0
0
0
0
0
0
0
0
0
0
0
0
0
0
0
0
0
0
0
0
0
0
0
0
0
0
0
1
1
0
0
0
0
0
0
0
0
0
0
0
0
0
0
0
0
0
0
0
0
1
1
0
0
0
0
0
0
0
0
0
0
0
0
0
0
0
0
0
0
0
0
0
0
0
0
0
0
0
0
0
0
0
0
0
1
1
0
0
0
0
0
0
0
0
0
0
0
0
0
0
0
0
0
0
0
0
1
1
0
0
0
0
0
0
0
0
0
0
0
0
0
0
0
0
0
0
0
0
0
0
0
0
0
0
0
0
0
0
0
0
0
1
1
0
0
0
0
0
0
0
0
0
0
0
0
0
0
0
0
0
0
0
0
1
1
0
0
0
0
0
0
0
0
0
0
0
0
0
0
0
0
0
0
0
0
0
0
0
0
0
0
0
0
0
0
0
0
0
1
1
0
0
0
0
0
0
0
0
0
0
0
0
0
0
0
0
0
0
0
0
1
1
0
0
0
0
0
0
0
0
0
0
0
0
0
0
0
0
0
0
0
0
0
0
0
0
0
0
0
0
0
0
0
0
0
1
1
0
0
0
0
0
0
0
0
0
0
0
0
0
0
0
0
0
0
0
0
1
1
0
0
0
0
0
0
0
0
0
0
0
0
0
0
0
0
0
0
0
0
0
0
0
0
0
0
0
0
0
0
0
0
0
1
1
0
0
0
0
0
0
0
0
0
0
0
0
0
0
0
0
0
0
0
0
0
1
1
0
0
0
0
0
0
0
0
0
0
0
0
0
0
0
0
0
0
0
0
0
0
0
0
0
0
0
0
0
0
0
0
0
0
1
1
0
0
0
0
0
0
0
0
0
0
0
0
0
0
0
0
0
0
0
0
0
0
0
0
0
0
0
0
0
0
0
0
0
0
0
0
0
0
0
0
0
0
0
0
0
0
0
0
0
0
0
0
0
0
0
0
0
1
1
0
0
0
0
0
0
0
0
0
0
0
0
0
0
0
0
0
0
0
0
0
0
0
0
0
0
0
0
0
0
0
0
0
0
0
0
0
0
0
0
0
0
0
0
0
0
0
0
0
0
0
0
0
0
0
0
0
1
1
0
0
0
0
0
0
0
0
0
0
0
0
0
0
0
0
0
0
0
0
0
0
0
0
0
0
0
0
0
0
0
0
0
0
0
0
0
0
0
0
0
0
0
0
0
0
0
0
0
0
0
0
0
0
0
0
0
1
1
0
0
0
0
0
0
0
0
0
0
0
0
0
0
0
0
0
0
0
0
0
0
0
0
0
0
0
0
0
0
0
0
0
0
0
0
0
0
0
0
0
0
0
0
0
0
0
0
0
0
0
0
0
0
0
0
0
1
1
0
0
0
0
0
0
0
0
0
0
0
0
0
0
0
0
0
0
0
0
0
0
0
0
0
0
0
0
0
0
0
0
0
0
0
0
0
0
0
0
0
0
0
0
0
0
0
0
0
0
0
0
0
0
0
0
0
1
1
0
0
0
0
0
0
0
0
0
0
0
0
0
0
0
0
0
0
0
0
0
0
0
0
0
0
0
0
0
0
0
0
0
0
0
0
0
0
0
0
0
0
0
0
0
0
0
0
0
0
0
0
0
0
0
0
0
1
1
0
0
0
0
0
0
0
0
0
0
0
0
0
0
0
0
0
0
0
0
0
0
0
0
0
0
0
0
0
0
0
0
0
0
0
0
0
0
0
0
0
0
0
0
0
0
0
0
0
0
0
0
0
0
0
0
0
1
1
0
0
0
0
0
0
0
0
0
0
0
0
0
0
0
0
0
0
0
0
0
0
0
0
0
0
0
0
0
0
0
0
0
0
0
0
0
0
0
0
0
0
0
0
0
0
0
0
0
0
0
0
0
0
0
0
0
1
1
0
0
0
0
0
0
0
0
0
0
0
0
0
0
0
0
0
0
0
0
0
0
0
0
0
0
0
0
0
0
0
0
0
0
0
0
0
0
0
0
0
0
0
0
0
0
0
0
0
0
0
0
0
0
0
0
0
1
1
0
0
0
0
0
0
0
0
0
0
0
0
0
0
0
0
0
0
0
0
0
0
0
0
0
0
0
0
0
0
0
0
0
0
0
0
0
0
0
0
0
0
0
0
0
0
0
0
0
0
0
0
0
0
0
0
0
1
1
0
0
0
0
0
0
0
0
0
0
0
0
0
0
0
0
0
0
0
0
0
1
1
0
0
0
0
0
0
0
0
0
0
0
0
0
0
0
0
0
0
0
0
0
0
0
0
0
0
0
0
0
0
0
0
0
0
1
1
0
0
0
0
0
0
0
0
0
0
0
0
0
0
0
0
0
0
0
0
1
1
0
0
0
0
0
0
0
0
0
0
0
0
0
0
0
0
0
0
0
0
0
0
0
0
0
0
0
0
0
0
0
0
0
1
1
0
0
0
0
0
0
0
0
0
0
0
0
0
0
0
0
0
0
0
0
1
1
0
0
0
0
0
0
0
0
0
0
0
0
0
0
0
0
0
0
0
0
0
0
0
0
0
0
0
0
0
0
0
0
0
1
1
0
0
0
0
0
0
0
0
0
0
0
0
0
0
0
0
0
0
0
0
1
1
0
0
0
0
0
0
0
0
0
0
0
0
0
0
0
0
0
0
0
0
0
0
0
0
0
0
0
0
0
0
0
0
0
1
1
0
0
0
0
0
0
0
0
0
0
0
0
0
0
0
0
0
0
0
0
1
1
0
0
0
0
0
0
0
0
0
0
0
0
0
0
0
0
0
0
0
0
0
0
0
0
0
0
0
0
0
0
0
0
0
1
1
0
0
0
0
0
0
0
0
0
0
0
0
0
0
0
0
0
0
0
0
1
1
0
0
0
0
0
0
0
0
0
0
0
0
0
0
0
0
0
0
0
0
0
0
0
0
0
0
0
0
0
0
0
0
0
1
1
0
0
0
0
0
0
0
0
0
0
0
0
0
0
0
0
0
0
0
0
1
1
0
0
0
0
0
0
0
0
0
0
0
0
0
0
0
0
0
0
0
0
0
0
0
0
0
0
0
0
0
0
0
0
0
1
1
0
0
0
0
0
0
0
0
0
0
0
0
0
0
0
0
0
0
0
0
1
1
0
0
0
0
0
0
0
0
0
0
0
0
0
0
0
0
0
0
0
0
0
0
0
0
0
0
0
0
0
0
0
0
0
1
1
0
0
0
0
0
0
0
0
0
0
0
0
0
0
0
0
0
0
0
0
1
1
0
0
0
0
0
0
0
0
0
0
0
0
0
0
0
0
0
0
0
0
0
0
0
0
0
0
0
0
0
0
0
0
0
1
1
0
0
0
0
0
0
0
0
0
0
0
0
0
0
0
0
0
0
0
0
1
1
0
0
0
0
0
0
0
0
0
0
0
0
0
0
0
0
0
0
0
0
0
0
0
0
0
0
0
0
0
0
0
0
0
1
1
0
0
0
0
0
0
0
0
0
0
0
0
0
0
0
0
0
0
0
0
1
1
0
0
0
0
0
0
0
0
0
0
0
0
0
0
0
0
0
0
0
0
0
0
0
0
0
0
0
0
0
0
0
0
0
1
1
0
0
0
0
0
0
0
0
0
0
0
0
0
0
0
0
0
0
0
0
1
1
0
0
0
0
0
0
0
0
0
0
0
0
0
0
0
0
0
0
0
0
0
0
0
0
0
0
0
0
0
0
0
0
0
1
1
0
0
0
0
0
0
0
0
0
0
0
0
0
0
0
0
0
0
0
0
1
1
0
0
0
0
0
0
0
0
0
0
0
0
0
0
0
0
0
0
0
0
0
0
0
0
0
0
0
0
0
0
0
0
0
1
1
0
0
0
0
0
0
0
0
0
0
0
0
0
0
0
0
0
0
0
0
1
1
0
0
0
0
0
0
0
0
0
0
0
0
0
0
0
0
0
0
0
0
0
0
0
0
0
0
0
0
0
0
0
0
0
1
1
0
0
0
0
0
0
0
0
0
0
0
0
0
0
0
0
0
0
0
0
1
1
0
0
0
0
0
0
0
0
0
0
0
0
0
0
0
0
0
0
0
0
0
0
0
0
0
0
0
0
0
0
0
0
0
1
1
0
0
0
0
0
0
0
0
0
0
0
0
0
0
0
0
0
0
0
0
1
1
0
0
0
0
0
0
0
0
0
0
0
0
0
0
0
0
0
0
0
0
0
0
0
0
0
0
0
0
0
0
0
0
0
1
1
0
0
0
0
0
0
0
0
0
0
0
0
0
0
0
0
0
0
0
0
1
1
0
0
0
0
0
0
0
0
0
0
0
0
0
0
0
0
0
0
0
0
0
0
0
0
0
0
0
0
0
0
0
0
0
1
1
0
0
0
0
0
0
0
0
0
0
0
0
0
0
0
0
0
0
0
0
1
1
0
0
0
0
0
0
0
0
0
0
0
0
0
0
0
0
0
0
0
0
0
0
0
0
0
0
0
0
0
0
0
0
0
1
1
0
0
0
0
0
0
0
0
0
0
0
0
0
0
0
0
0
0
0
0
1
1
0
0
0
0
0
0
0
0
0
0
0
0
0
0
0
0
0
0
0
0
0
0
0
0
0
0
0
0
0
0
0
0
0
1
1
0
0
0
0
0
0
0
0
0
0
0
0
0
0
0
0
0
0
0
0
1
1
0
0
0
0
0
0
0
0
0
0
0
0
0
0
0
0
0
0
0
0
0
0
0
0
0
0
0
0
0
0
0
0
0
1
1
0
0
0
0
0
0
0
0
0
0
0
0
0
0
0
0
0
0
0
0
1
1
0
0
0
0
0
0
0
0
0
0
0
0
0
0
0
0
0
0
0
0
0
0
0
0
0
0
0
0
0
0
0
0
0
1
1
0
0
0
0
0
0
0
0
0
0
0
0
0
0
0
0
0
0
0
0
1
1
0
0
0
0
0
0
0
0
0
0
0
0
0
0
0
0
0
0
0
0
0
0
0
0
0
0
0
0
0
0
0
0
0
1
1
1
1
1
1
1
1
1
1
1
1
1
1
1
1
1
1
1
1
1
1
1
1
1
1
1
1
1
1
1
1
1
1
1
1
1
1
1
1
1
1
1
1
1
1
1
1
1
1
1
1
1
1
1
1
1
1
				</DataArray>
				<DataArray type="Float64" Name="h" NumberOfComponents="1" Format="ascii">
1.1339335901
1.1357186889
1.1356012578
1.1353709168
1.1350338099
1.1345989197
1.1340778057
1.1334840935
1.1328332083
1.1321419169
1.1314277393
1.1307085216
1.1300019615
1.1293251613
1.1286942027
1.1281238043
1.1276271280
1.1272154340
1.1268979095
1.1266817150
1.1265717101
1.1265717101
1.2416247177
1.2397554359
1.2396827275
1.2395452828
1.2393547201
1.2391283811
1.2388889366
1.2386635276
1.2384831050
1.2383812643
1.2383925703
1.2385508892
1.2388872608
1.2394274259
1.2401894803
1.2411815089
1.2423996196
1.2438269093
1.2454333424
1.2471770638
1.2490072188
1.2508676506
1.2527015828
1.2544563822
1.2560873586
1.2575606973
1.2588546644
1.2599590526
1.2608737969
1.2616063208
1.2621684638
1.2625739016
1.2628353111
1.2629622663
1.2629622663
1.1357186889
1.1374651154
1.1373394641
1.1370927239
1.1367312497
1.1362643694
1.1357041480
1.1350649007
1.1343629314
1.1336160830
1.1328431375
1.1320633576
1.1312959830
1.1305597314
1.1298723156
1.1292500502
1.1287075926
1.1282575416
1.1279102209
1.1276736753
1.1275533666
1.1265717101
1.2397554359
1.2378591275
1.2378067947
1.2377098065
1.2375793946
1.2374322811
1.2372902341
1.2371791547
1.2371283556
1.2371693189
1.2373339482
1.2376528405
1.2381530974
1.2388558380
1.2397739361
1.2409098153
1.2422537832
1.2437834529
1.2454641438
1.2472507485
1.2490910358
1.2509296329
1.2527126995
1.2543924056
1.2559301981
1.2572990710
1.2584840860
1.2594812721
1.2602958856
1.2609395908
1.2614274232
1.2617753480
1.2619975853
1.2621046606
1.2629622663
1.1355804350
1.1373078776
1.1371846545
1.1369427288
1.1365883483
1.1361306788
1.1355815690
1.1349550650
1.1342671570
1.1335353355
1.1327780021
1.1320140237
1.1312622394
1.1305409747
1.1298675701
1.1292579956
1.1287266019
1.1282857247
1.1279454723
1.1277137264
1.1275958398
1.1266492179
1.2395607305
1.2376814266
1.2376286846
1.2375309666
1.2373996007
1.2372514485
1.2371084521
1.2369967108
1.2369457531
1.2369872840
1.2371534284
1.2374749959
1.2379792834
1.2386875841
1.2396129179
1.2407578192
1.2421126658
1.2436550887
1.2453503575
1.2471532375
1.2490112795
1.2508688215
1.2526716424
1.2543714653
1.2559292500
1.2573174972
1.2585208029
1.2595347822
1.2603643431
1.2610208742
1.2615192009
1.2618751327
1.2621027807
1.2622125991
1.2630645534
1.1353136229
1.1370035491
1.1368850604
1.1366525229
1.1363119789
1.1358722833
1.1353448674
1.1347432585
1.1340828391
1.1333804161
1.1326536503
1.1319206362
1.1311994287
1.1305075824
1.1298617035
1.1292770809
1.1287674559
1.1283446401
1.1280183110
1.1277960233
1.1276829106
1.1268042262
1.2391554637
1.2373092191
1.2372561460
1.2371579091
1.2370259708
1.2368773911
1.2367343650
1.2366232874
1.2365740179
1.2366186156
1.2367895708
1.2371180580
1.2376317242
1.2383521895
1.2392927633
1.2404562151
1.2418330901
1.2434010899
1.2451254265
1.2469606603
1.2488539643
1.2507491111
1.2525911352
1.2543308813
1.2559283502
1.2573550700
1.2585947144
1.2596420758
1.2605013685
1.2611834264
1.2617026502
1.2620745334
1.2623129638
1.2624282499
1.2632689721
1.1349263398
1.1365612721
1.1364495444
1.1362304188
1.1359096528
1.1354956683
1.1349993135
1.1344333868
1.1338124134
1.1331522300
1.1324694413
1.1317810347
1.1311039354
1.1304545816
1.1298485113
1.1293000170
1.1288219442
1.1284253310
1.1281192156
1.1279106665
1.1278044900
1.1270231469
1.2385416692
1.2367434618
1.2366902167
1.2365918296
1.2364599366
1.2363118542
1.2361701054
1.2360614692
1.2360162378
1.2360669355
1.2362465352
1.2365866985
1.2371155445
1.2378551412
1.2388192022
1.2400108341
1.2414208342
1.2430270249
1.2447945664
1.2466777551
1.2486232595
1.2505740394
1.2524740594
1.2542728899
1.2559291326
1.2574128862
1.2587064593
1.2598034172
1.2607069319
1.2614269972
1.2619773630
1.2623730347
1.2626275532
1.2627509996
1.2635750517
1.1344298171
1.1359937904
1.1358904662
1.1356880197
1.1353918708
1.1350099249
1.1345523296
1.1340310002
1.1334594152
1.1328522169
1.1322246998
1.1315924669
1.1309710203
1.1303753820
1.1298197245
1.1293170579
1.1288790679
1.1285157837
1.1282354062
1.1280443629
1.1279470276
1.1272876980
1.2377218837
1.2359851549
1.2359320262
1.2358341084
1.2357032490
1.2355570747
1.2354185024
1.2353147682
1.2352766759
1.2353372949
1.2355301609
1.2358875019
1.2364379855
1.2372042043
1.2382003516
1.2394299434
1.2408840933
1.2425408000
1.2443651855
1.2463112585
1.2483250945
1.2503486397
1.2523245145
1.2542006715
1.2559339124
1.2574924858
1.2588569129
1.2600191347
1.2609809281
1.2617511514
1.2623426650
1.2627697977
1.2630456067
1.2631798560
1.2639819696
1.1338377089
1.1353166486
1.1352229190
1.1350395301
1.1347715429
1.1344263083
1.1340132130
1.1335432011
1.1330285856
1.1324826635
1.1319192363
1.1313523130
1.1307957403
1.1302628764
1.1297662748
1.1293174118
1.1289265734
1.1286025625
1.1283525544
1.1281821873
1.1280952991
1.1275771304
1.2366991607
1.2350354217
1.2349828704
1.2348863725
1.2347580210
1.2346157979
1.2344830643
1.2343875654
1.2343606647
1.2344360169
1.2346477549
1.2350286985
1.2356080865
1.2364090591
1.2374463186
1.2387238232
1.2402330547
1.2419522319
1.2438464758
1.2458695254
1.2479668173
1.2500791344
1.2521475495
1.2541181138
1.2559454864
1.2575956759
1.2590470257
1.2602894676
1.2613230274
1.2621551196
1.2627974598
1.2632634972
1.2635656539
1.2637132768
1.2644883387
1.1331649823
1.1345469802
1.1344635598
1.1343006690
1.1340630218
1.1337574249
1.1333925038
1.1329782127
1.1325256556
1.1320467100
1.1315535775
1.1310585345
1.1305736044
1.1301102901
1.1296793188
1.1292904178
1.1289522605
1.1286722233
1.1284562786
1.1283091314
1.1282339826
1.1278702776
1.2354778320
1.2338963612
1.2338450451
1.2337512918
1.2336274675
1.2334919425
1.2333685535
1.2332855796
1.2332749565
1.2333709212
1.2336081844
1.2340201283
1.2346365241
1.2354810280
1.2365688273
1.2379043262
1.2394793913
1.2412725100
1.2432488789
1.2453620033
1.2475566911
1.2497724728
1.2519487373
1.2540294319
1.2559667873
1.2577242316
1.2592775556
1.2606143185
1.2617324398
1.2626375691
1.2633400049
1.2638520963
1.2641854674
1.2643489392
1.2650919312
1.1324275322
1.1337030022
1.1336301467
1.1334882900
1.1332818432
1.1330171249
1.1327020572
1.1323456529
1.1319578351
1.1315490623
1.1311299027
1.1307108305
1.1303019416
1.1299127469
1.1295519855
1.1292274560
1.1289460318
1.1287134789
1.1285343974
1.1284124184
1.1283500040
1.1281483413
1.2340625457
1.2325701793
1.2325209807
1.2324317186
1.2323150512
1.2321897528
1.2320801423
1.2320150254
1.2320268822
1.2321504782
1.2324210294
1.2328723883
1.2335347619
1.2344322287
1.2355803966
1.2369840704
1.2386355019
1.2405135103
1.2425834315
1.2447986573
1.2471033916
1.2494359081
1.2517338327
1.2539388828
1.2560006522
1.2578796961
1.2595489129
1.2609931237
1.2622077957
1.2631964865
1.2639677903
1.2645327214
1.2649019324
1.2650836066
1.2657894831
1.1316415126
1.1328032480
1.1327408042
1.1326197102
1.1324441466
1.1322200403
1.1319547191
1.1316563616
1.1313338028
1.1309961497
1.1306523698
1.1303111302
1.1299805531
1.1296680722
1.1293803189
1.1291230163
1.1289010727
1.1287184716
1.1285782759
1.1284828993
1.1284339586
1.1283966567
1.2324584170
1.2310594332
1.2310134758
1.2309309020
1.2308246667
1.2307139417
1.2306235036
1.2305826415
1.2306243057
1.2307836877
1.2310963760
1.2315965467
1.2323146823
1.2332751477
1.2344938440
1.2359759158
1.2377139767
1.2396871821
1.2418612400
1.2441894510
1.2466155101
1.2490765145
1.2515083517
1.2538504010
1.2560494908
1.2580630782
1.2598608600
1.2614245757
1.2627468791
1.2638289097
1.2646772642
1.2653013799
1.2657107604
1.2659128375
1.2665763549
1.1308225782
1.1318657097
1.1318131896
1.1317119255
1.1315659607
1.1313809589
1.1311638029
1.1309219921
1.1306634197
1.1303959641
1.1301270830
1.1298636857
1.1296119265
1.1293771227
1.1291637167
1.1289752375
1.1288144802
1.1286834799
1.1285835938
1.1285158652
1.1284809474
1.1286057845
1.2306718960
1.2293680104
1.2293266520
1.2292533957
1.2291614797
1.2290704392
1.2290054502
1.2289962012
1.2290759968
1.2292802989
1.2296448885
1.2302040600
1.2309883750
1.2320222891
1.2333218504
1.2348924173
1.2367269638
1.2388050447
1.2410927504
1.2435437065
1.2461009307
1.2487006150
1.2512769812
1.2537670857
1.2561148478
1.2582744597
1.2602121611
1.2619062814
1.2633463135
1.2645306338
1.2654635507
1.2661526847
1.2666062158
1.2668307156
1.2674462165
1.1299857144
1.1309075774
1.1308642476
1.1307813920
1.1306630251
1.1305146974
1.1303430243
1.1301550165
1.1299578108
1.1297582248
1.1295623426
1.1293754112
1.1292016674
1.1290443124
1.1289055505
1.1287866203
1.1286880643
1.1286097999
1.1285512945
1.1285120453
1.1284916009
1.1287726881
1.2287100885
1.2275005479
1.2274653755
1.2274044851
1.2273313590
1.2272658270
1.2272333649
1.2272639364
1.2273910384
1.2276502068
1.2280771811
1.2287061398
1.2295674765
1.2306855302
1.2320762810
1.2337451944
1.2356855613
1.2378773955
1.2402874364
1.2428695791
1.2455664026
1.2483133696
1.2510432449
1.2536908211
1.2561970731
1.2585127283
1.2606003499
1.2624345641
1.2640013595
1.2652960195
1.2663202663
1.2670796758
1.2675809424
1.2678296770
1.2683908287
1.1291449567
1.1299449088
1.1299098804
1.1298437005
1.1297504704
1.1296357889
1.1295061988
1.1293684348
1.1292290907
1.1290941226
1.1289684125
1.1288556794
1.1287583304
1.1286774856
1.1286130882
1.1285640044
1.1285283836
1.1285038391
1.1284877328
1.1284777984
1.1284722960
1.1289009869
1.2265812184
1.2254629800
1.2254357989
1.2253907205
1.2253413923
1.2253078224
1.2253156394
1.2253949129
1.2255791314
1.2259036703
1.2264039594
1.2271137920
1.2280631368
1.2292759597
1.2307680122
1.2325446643
1.2345994909
1.2369131170
1.2394530036
1.2421736446
1.2450171021
1.2479184280
1.2508091586
1.2536219871
1.2562949489
1.2587752089
1.2610213774
1.2630041114
1.2647055733
1.2661176361
1.2672391673
1.2680734761
1.2686256257
1.2689001790
1.2693996930
1.1283131510
1.1289923433
1.1289646579
1.1289132778
1.1288425076
1.1287581590
1.1286669032
1.1285754222
1.1284899963
1.1284159410
1.1283571358
1.1283159367
1.1282930425
1.1282875560
1.1282971574
1.1283182646
1.1283464834
1.1283769033
1.1284045123
1.1284249938
1.1284350646
1.1290008469
1.2242955610
1.2232635605
1.2232463779
1.2232209174
1.2232008517
1.2232061870
1.2232625005
1.2233997530
1.2236511923
1.2240517922
1.2246363563
1.2254380205
1.2264860455
1.2278038233
1.2294067447
1.2312997967
1.2334768435
1.2359192262
1.2385953421
1.2414602144
1.2444560610
1.2475173904
1.2505748084
1.2535590928
1.2564054230
1.2590572879
1.2614692187
1.2636075822
1.2654504233
1.2669859226
1.2682098399
1.2691230184
1.2697287491
1.2700304687
1.2704598163
1.1275019721
1.1280630920
1.1280417954
1.1280033414
1.1279523508
1.1278950091
1.1278383146
1.1277891229
1.1277536374
1.1277367692
1.1277416170
1.1277693671
1.1278191600
1.1278881716
1.1279718331
1.1280640410
1.1281576841
1.1282450594
1.1283184298
1.1283710321
1.1283976640
1.1290889910
1.2218648695
1.2209123573
1.2209074057
1.2209057572
1.2209208665
1.2209724659
1.2210858013
1.2212904629
1.2216192074
1.2221063983
1.2227858184
1.2236896863
1.2248463272
1.2262783440
1.2280008237
1.2300179564
1.2323238661
1.2349009477
1.2377184462
1.2407319825
1.2438841877
1.2471097101
1.2503381272
1.2534984795
1.2565231723
1.2593520635
1.2619354477
1.2642352031
1.2662249478
1.2678888977
1.2692194668
1.2702148460
1.2708764163
1.2712064195
1.2715555549
1.1267219223
1.1271689437
1.1271531431
1.1271258572
1.1270921290
1.1270586703
1.1270329988
1.1270223660
1.1270331396
1.1270700733
1.1271357272
1.1272303375
1.1273516652
1.1274950757
1.1276537843
1.1278190939
1.1279809785
1.1281286054
1.1282510422
1.1283385120
1.1283833181
1.1291883312
1.2193026477
1.2184215701
1.2184314013
1.2184582685
1.2185149942
1.2186206242
1.2187996975
1.2190811156
1.2194968832
1.2200806750
1.2208646737
1.2218800218
1.2231539239
1.2247080465
1.2265567136
1.2287048599
1.2311453559
1.2338622359
1.2368254166
1.2399905844
1.2433015945
1.2466932915
1.2500948508
1.2534337851
1.2566399493
1.2596495576
1.2624085561
1.2648742291
1.2670152941
1.2688117182
1.2702524300
1.2713327514
1.2720520333
1.2724112429
1.2726683919
1.1259824291
1.1263203635
1.1263092683
1.1262915908
1.1262728931
1.1262605555
1.1262627966
1.1262874816
1.1263413842
1.1264293589
1.1265536883
1.1267139039
1.1269065978
1.1271254759
1.1273616009
1.1276036248
1.1278383873
1.1280515109
1.1282282370
1.1283549531
1.1284205652
1.1293277151
1.2166242203
1.2158056475
1.2158333615
1.2158942304
1.2159997472
1.2161676565
1.2164212677
1.2167883559
1.2172997273
1.2179878867
1.2188845377
1.2200193523
1.2214181966
1.2231014733
1.2250824737
1.2273657635
1.2299452338
1.2328050109
1.2359163904
1.2392349464
1.2427057311
1.2462643071
1.2498396212
1.2533579363
1.2567467037
1.2599386710
1.2628754144
1.2655093581
1.2678045796
1.2697365120
1.2712901142
1.2724576402
1.2732362181
1.2736254664
1.2737770542
1.1252918773
1.1255265390
1.1255194837
1.1255100994
1.1255045559
1.1255110325
1.1255386208
1.1255960113
1.1256906279
1.1258276938
1.1260094958
1.1262351370
1.1265002927
1.1267972143
1.1271149313
1.1274394313
1.1277542028
1.1280408292
1.1282798899
1.1284527435
1.1285434570
1.1295420313
1.2138449064
1.2130794763
1.2131290235
1.2132303175
1.2133924303
1.2136310316
1.2139677130
1.2144288583
1.2150439513
1.2158437611
1.2168597804
1.2181203002
1.2196497119
1.2214672367
1.2235851535
1.2260074121
1.2287279698
1.2317318735
1.2349912479
1.2384624183
1.2420918608
1.2458160070
1.2495638716
1.2532606668
1.2568316101
1.2602060001
1.2633211152
1.2661245104
1.2685752731
1.2706441848
1.2723121786
1.2735682498
1.2744071810
1.2748271157
1.2748577574
1.1246577219
1.1247955276
1.1247919770
1.1247898285
1.1247959392
1.1248194077
1.1248703610
1.1249585216
1.1250922093
1.1252772952
1.1255163760
1.1258084444
1.1261485712
1.1265278397
1.1269334689
1.1273488672
1.1277540163
1.1281259249
1.1284394417
1.1286691815
1.1287920693
1.1298726474
1.2109779709
1.2102564255
1.2103332575
1.2104831096
1.2107111573
1.2110299702
1.2114588074
1.2120224017
1.2127489192
1.2136679882
1.2148093754
1.2162002114
1.2178636413
1.2198175695
1.2220735549
1.2246348783
1.2274962046
1.2306430165
1.2340480174
1.2376690169
1.2414539247
1.2453404119
1.2492577064
1.2531302044
1.2568810412
1.2604361616
1.2637285391
1.2667008275
1.2693070224
1.2715131203
1.2732958952
1.2746409544
1.2755406392
1.2759915773
1.2758842123
1.1240867479
1.1241345352
1.1241340769
1.1241383526
1.1241549773
1.1241940790
1.1242669719
1.1243846111
1.1245564588
1.1247893232
1.1250864469
1.1254470824
1.1258660949
1.1263338069
1.1268360113
1.1273538162
1.1278637196
1.1283376943
1.1287436040
1.1290469518
1.1292138816
1.1303688218
1.2080330750
1.2073468484
1.2074594770
1.2076694359
1.2079759276
1.2083870305
1.2089188410
1.2095940013
1.2104391708
1.2114827040
1.2127530127
1.2142761343
1.2160741535
1.2181640476
1.2205562180
1.2232542874
1.2262532038
1.2295390246
1.2330851356
1.2368507458
1.2407858989
1.2448294090
1.2489109684
1.2529543354
1.2568807184
1.2606128264
1.2640793734
1.2672181157
1.2699779000
1.2723198501
1.2742164853
1.2756499513
1.2766101048
1.2770920196
1.2768284435
1.1235850339
1.1235499081
1.1235522318
1.1235623262
1.1235886262
1.1236423872
1.1237362506
1.1238825959
1.1240922710
1.1243733235
1.1247300049
1.1251622656
1.1256652776
1.1262291867
1.1268389791
1.1274740739
1.1281078953
1.1287072499
1.1292318093
1.1296349306
1.1298664376
1.1310905332
1.2050122763
1.2043541881
1.2045170410
1.2048045375
1.2052068302
1.2057257050
1.2063732037
1.2071695939
1.2081400476
1.2093118719
1.2107125524
1.2123673456
1.2142976701
1.2165198936
1.2190440694
1.2218729759
1.2250038972
1.2284224494
1.2321020430
1.2360050667
1.2400829499
1.2442759732
1.2485144367
1.2527215922
1.2568168847
1.2607199194
1.2643552593
1.2676558221
1.2705653211
1.2730399872
1.2750480520
1.2765681801
1.2775877331
1.2781002113
1.2776619346
1.1231580730
1.1230472933
1.1230521607
1.1230676159
1.1231029645
1.1231706725
1.1232848325
1.1234594234
1.1237069149
1.1240368990
1.1244550283
1.1249624498
1.1255552821
1.1262243195
1.1269546993
1.1277252675
1.1285075100
1.1292637926
1.1299450664
1.1304893093
1.1308222444
1.1321137797
1.2019027179
1.2012680770
1.2015066116
1.2018989058
1.2024220224
1.2030694028
1.2038483614
1.2047768571
1.2058790388
1.2071817618
1.2087122882
1.2104956887
1.2125531788
1.2149012143
1.2175499055
1.2205022788
1.2237557545
1.2272974331
1.2311013437
1.2351320259
1.2393428756
1.2436756521
1.2480613229
1.2524227562
1.2566777817
1.2607430763
1.2645392173
1.2679944304
1.2710474027
1.2736495404
1.2757648358
1.2773685315
1.2784455146
1.2789877276
1.2783572290
1.1228110560
1.1226319421
1.1226391536
1.1226595919
1.1227034695
1.1227845268
1.1229184067
1.1231208384
1.1234061233
1.1237856907
1.1242670050
1.1248529378
1.1255413150
1.1263246109
1.1271896007
1.1281163300
1.1290767075
1.1300311871
1.1309236710
1.1316751645
1.1321781344
1.1335408972
1.1986644157
1.1980530428
1.1984139374
1.1989550068
1.1996360035
1.2004404262
1.2013710360
1.2024444657
1.2036849975
1.2051202234
1.2067782913
1.2086849485
1.2108620392
1.2133266378
1.2160896218
1.2191548283
1.2225198437
1.2261727077
1.2300890852
1.2342355978
1.2385674878
1.2430280321
1.2475488436
1.2520524883
1.2564553470
1.2606713731
1.2646174061
1.2682172299
1.2714047292
1.2741266692
1.2763429501
1.2780255550
1.2791569401
1.2797273350
1.2788895134
1.1225487279
1.1223085990
1.1223179569
1.1223430047
1.1223948803
1.1224886340
1.1226415242
1.1228711417
1.1231937852
1.1236229694
1.1241683609
1.1248350962
1.1256234579
1.1265288300
1.1275414424
1.1286454692
1.1298171518
1.1310209998
1.1322010755
1.1332668552
1.1340715846
1.1355189686
1.1952097129
1.1946301455
1.1952016852
1.1959649571
1.1968597786
1.1978607255
1.1989687917
1.2002022185
1.2015879721
1.2031563473
1.2049379527
1.2069605505
1.2092474729
1.2118172018
1.2146820272
1.2178471399
1.2213105380
1.2250608219
1.2290759837
1.2333246225
1.2377637778
1.2423380117
1.2469795747
1.2516107935
1.2561467433
1.2604989230
1.2645807712
1.2683120033
1.2716220679
1.2744533986
1.2767621371
1.2785171529
1.2796983738
1.2802947458
1.2792390801
1.1223754424
1.1220815902
1.1220928654
1.1221220833
1.1221813008
1.1222868789
1.1224577084
1.1227132959
1.1230720417
1.1235497038
1.1241584412
1.1249061436
1.1257961739
1.1268278999
1.1279968935
1.1292948922
1.1307088975
1.1322181615
1.1337861055
1.1353373953
1.1366975115
1.1382569002
1.1913655564
1.1908444645
1.1917964672
1.1929110536
1.1941054242
1.1953561520
1.1966727835
1.1980824645
1.1996195927
1.2013202868
1.2032196294
1.2053489166
1.2077341997
1.2103959781
1.2133484993
1.2165990219
1.2201460451
1.2239787979
1.2280778378
1.2324136129
1.2369446676
1.2416167069
1.2463625200
1.2511041832
1.2557556493
1.2602262798
1.2644265524
1.2682726256
1.2716900243
1.2746173589
1.2770075147
1.2788263044
1.2800515331
1.2806710065
1.2793932016
1.1222953728
1.1219550524
1.1219679606
1.1220007900
1.1220664805
1.1221826633
1.1223698226
1.1226493583
1.1230418056
1.1235652139
1.1242342879
1.1250600802
1.1260490006
1.1272049025
1.1285294970
1.1300234164
1.1316878152
1.1335256558
1.1355431582
1.1377543350
1.1401970477
1.1426907091
1.1576374936
1.1616898534
1.1865547195
1.1870148454
1.1883750718
1.1899010349
1.1914462606
1.1929819965
1.1945279325
1.1961234868
1.1978135830
1.1996424591
1.2016513889
1.2038763508
1.2063470897
1.2090867883
1.2121121835
1.2154327503
1.2190479230
1.2229478712
1.2271153502
1.2315225188
1.2361290755
1.2408816706
1.2457134272
1.2505461764
1.2552929191
1.2598612648
1.2641592774
1.2681002153
1.2716063586
1.2746133026
1.2770710614
1.2789428367
1.2802048094
1.2808437224
1.2793475495
1.1223122866
1.1219327344
1.1219469241
1.1219826572
1.1220536901
1.1221788404
1.1223800986
1.1226806570
1.1231031973
1.1236678595
1.1243917617
1.1252884295
1.1263680307
1.1276388100
1.1291086038
1.1307872241
1.1326902932
1.1348446142
1.1372978180
1.1401381196
1.1435365252
1.1477311085
1.1564984831
1.1604344744
1.1762672942
1.1809520558
1.1842032915
1.1867210095
1.1888470382
1.1907589789
1.1925686690
1.1943600584
1.1962016691
1.1981514990
1.2002595133
1.2025676906
1.2051100869
1.2079133866
1.2109968059
1.2143719967
1.2180397979
1.2219922857
1.2262130888
1.2306757313
1.2353409595
1.2401559481
1.2450539822
1.2499566063
1.2547760621
1.2594186393
1.2637906478
1.2678032083
1.2713763315
1.2744435012
1.2769523353
1.2788642650
1.2801541970
1.2808080508
1.2791067824
1.1224295111
1.1220179886
1.1220330430
1.1220708251
1.1221458157
1.1222779038
1.1224904580
1.1228082628
1.1232556483
1.1238547453
1.1246247980
1.1255817109
1.1267385782
1.1281071709
1.1296998645
1.1315324588
1.1336283709
1.1360241081
1.1387775101
1.1419812063
1.1457838682
1.1503851174
1.1570162665
1.1625312236
1.1720301751
1.1772109004
1.1810666056
1.1841038622
1.1866304685
1.1888436261
1.1908803919
1.1928450175
1.1948207576
1.1968760909
1.1990685309
1.2014455278
1.2040454291
1.2068981183
1.2100253621
1.2134404313
1.2171470512
1.2211381152
1.2253976699
1.2299004952
1.2346075953
1.2394664453
1.2444102139
1.2493601262
1.2542278723
1.2589189208
1.2633385075
1.2673966519
1.2710123529
1.2741175348
1.2766585024
1.2785957913
1.2799035083
1.2805670383
1.2786842120
1.1226500612
1.1222139078
1.1222293574
1.1222682135
1.1223455705
1.1224821971
1.1227025414
1.1230326969
1.1234983967
1.1241233594
1.1249285110
1.1259316616
1.1271479977
1.1285916554
1.1302776723
1.1322245929
1.1344581599
1.1370152611
1.1399485068
1.1433316182
1.1472635593
1.1518546098
1.1574782114
1.1629963872
1.1698154211
1.1748148017
1.1788248084
1.1821103631
1.1848822394
1.1873064465
1.1895149356
1.1916159421
1.1936989994
1.1958387285
1.1980978998
1.2005282661
1.2031715552
1.2060604785
1.2092188593
1.2126617188
1.2163939590
1.2204103443
1.2246960732
1.2292245485
1.2339572758
1.2388415335
1.2438101205
1.2487838829
1.2536741940
1.2583861796
1.2628250889
1.2669009482
1.2705323411
1.2736509820
1.2762032512
1.2781495003
1.2794636447
1.2801309371
1.2781002243
1.1229764196
1.1225231116
1.1225384476
1.1225772945
1.1226552011
1.1227935783
1.1230176781
1.1233545434
1.1238309471
1.1244717402
1.1252990476
1.1263319578
1.1275869419
1.1290794224
1.1308255477
1.1328444277
1.1351611271
1.1378090127
1.1408313229
1.1442813062
1.1482177511
1.1526874744
1.1577730723
1.1629870353
1.1685984261
1.1733271232
1.1773292174
1.1807166796
1.1836226822
1.1861778413
1.1885006016
1.1906960600
1.1928550175
1.1950548811
1.1973614849
1.1998293844
1.2025027107
1.2054160688
1.2085948683
1.2120551845
1.2158029451
1.2198338439
1.2241330605
1.2286739637
1.2334169632
1.2383085119
1.2432809044
1.2482546395
1.2531410701
1.2578458044
1.2622746066
1.2663383854
1.2699569598
1.2730632747
1.2756047278
1.2775424471
1.2788508642
1.2795155371
1.2773796174
1.1234104820
1.1229476813
1.1229623545
1.1230000125
1.1230764834
1.1232135683
1.1234370082
1.1237744090
1.1242531633
1.1248987647
1.1257340067
1.1267786242
1.1280496488
1.1295629185
1.1313346762
1.1333835317
1.1357329571
1.1384126533
1.1414584992
1.1449103814
1.1488046528
1.1531567090
1.1579595598
1.1629280780
1.1680061100
1.1725342481
1.1764825778
1.1798919740
1.1828519925
1.1854693864
1.1878511389
1.1900978281
1.1922992998
1.1945335969
1.1968677224
1.1993575841
1.2020484509
1.2049759061
1.2081660692
1.2116355303
1.2153905640
1.2194269643