<VTKFile type="UnstructuredGrid" version="0.1">
	<UnstructuredGrid>
		<Piece NumberOfPoints="13548" NumberOfCells="3387">
			<CellData>
				<DataArray type="Int32" Name="ghost" NumberOfComponents="1" Format="ascii">
1
1
1
1
1
1
1
1
1
1
1
1
1
1
1
1
1
1
1
1
1
1
1
1
1
1
1
1
1
1
1
1
1
1
1
1
1
1
1
1
1
1
1
1
1
1
1
1
1
1
1
1
1
1
1
1
1
1
0
0
0
0
0
0
0
0
0
0
0
0
0
0
0
0
0
0
0
0
1
1
0
0
0
0
0
0
0
0
0
0
0
0
0
0
0
0
0
0
0
0
0
0
0
0
0
0
0
0
0
0
0
0
0
1
1
0
0
0
0
0
0
0
0
0
0
0
0
0
0
0
0
0
0
0
0
1
1
0
0
0
0
0
0
0
0
0
0
0
0
0
0
0
0
0
0
0
0
0
0
0
0
0
0
0
0
0
0
0
0
0
1
1
0
0
0
0
0
0
0
0
0
0
0
0
0
0
0
0
0
0
0
0
1
1
0
0
0
0
0
0
0
0
0
0
0
0
0
0
0
0
0
0
0
0
0
0
0
0
0
0
0
0
0
0
0
0
0
1
1
0
0
0
0
0
0
0
0
0
0
0
0
0
0
0
0
0
0
0
0
1
1
0
0
0
0
0
0
0
0
0
0
0
0
0
0
0
0
0
0
0
0
0
0
0
0
0
0
0
0
0
0
0
0
0
1
1
0
0
0
0
0
0
0
0
0
0
0
0
0
0
0
0
0
0
0
0
1
1
0
0
0
0
0
0
0
0
0
0
0
0
0
0
0
0
0
0
0
0
0
0
0
0
0
0
0
0
0
0
0
0
0
1
1
0
0
0
0
0
0
0
0
0
0
0
0
0
0
0
0
0
0
0
0
1
1
0
0
0
0
0
0
0
0
0
0
0
0
0
0
0
0
0
0
0
0
0
0
0
0
0
0
0
0
0
0
0
0
0
1
1
0
0
0
0
0
0
0
0
0
0
0
0
0
0
0
0
0
0
0
0
1
1
0
0
0
0
0
0
0
0
0
0
0
0
0
0
0
0
0
0
0
0
0
0
0
0
0
0
0
0
0
0
0
0
0
1
1
0
0
0
0
0
0
0
0
0
0
0
0
0
0
0
0
0
0
0
0
1
1
0
0
0
0
0
0
0
0
0
0
0
0
0
0
0
0
0
0
0
0
0
0
0
0
0
0
0
0
0
0
0
0
0
1
1
0
0
0
0
0
0
0
0
0
0
0
0
0
0
0
0
0
0
0
0
1
1
0
0
0
0
0
0
0
0
0
0
0
0
0
0
0
0
0
0
0
0
0
0
0
0
0
0
0
0
0
0
0
0
0
1
1
0
0
0
0
0
0
0
0
0
0
0
0
0
0
0
0
0
0
0
0
1
1
0
0
0
0
0
0
0
0
0
0
0
0
0
0
0
0
0
0
0
0
0
0
0
0
0
0
0
0
0
0
0
0
0
1
1
0
0
0
0
0
0
0
0
0
0
0
0
0
0
0
0
0
0
0
0
1
1
0
0
0
0
0
0
0
0
0
0
0
0
0
0
0
0
0
0
0
0
0
0
0
0
0
0
0
0
0
0
0
0
0
1
1
0
0
0
0
0
0
0
0
0
0
0
0
0
0
0
0
0
0
0
0
1
1
0
0
0
0
0
0
0
0
0
0
0
0
0
0
0
0
0
0
0
0
0
0
0
0
0
0
0
0
0
0
0
0
0
1
1
0
0
0
0
0
0
0
0
0
0
0
0
0
0
0
0
0
0
0
0
1
1
0
0
0
0
0
0
0
0
0
0
0
0
0
0
0
0
0
0
0
0
0
0
0
0
0
0
0
0
0
0
0
0
0
1
1
0
0
0
0
0
0
0
0
0
0
0
0
0
0
0
0
0
0
0
0
1
1
0
0
0
0
0
0
0
0
0
0
0
0
0
0
0
0
0
0
0
0
0
0
0
0
0
0
0
0
0
0
0
0
0
1
1
0
0
0
0
0
0
0
0
0
0
0
0
0
0
0
0
0
0
0
0
1
1
0
0
0
0
0
0
0
0
0
0
0
0
0
0
0
0
0
0
0
0
0
0
0
0
0
0
0
0
0
0
0
0
0
1
1
0
0
0
0
0
0
0
0
0
0
0
0
0
0
0
0
0
0
0
0
1
1
0
0
0
0
0
0
0
0
0
0
0
0
0
0
0
0
0
0
0
0
0
0
0
0
0
0
0
0
0
0
0
0
0
1
1
0
0
0
0
0
0
0
0
0
0
0
0
0
0
0
0
0
0
0
0
1
1
0
0
0
0
0
0
0
0
0
0
0
0
0
0
0
0
0
0
0
0
0
0
0
0
0
0
0
0
0
0
0
0
0
1
1
0
0
0
0
0
0
0
0
0
0
0
0
0
0
0
0
0
0
0
0
1
1
0
0
0
0
0
0
0
0
0
0
0
0
0
0
0
0
0
0
0
0
0
0
0
0
0
0
0
0
0
0
0
0
0
1
1
0
0
0
0
0
0
0
0
0
0
0
0
0
0
0
0
0
0
0
0
1
1
0
0
0
0
0
0
0
0
0
0
0
0
0
0
0
0
0
0
0
0
0
0
0
0
0
0
0
0
0
0
0
0
0
1
1
0
0
0
0
0
0
0
0
0
0
0
0
0
0
0
0
0
0
0
0
1
1
0
0
0
0
0
0
0
0
0
0
0
0
0
0
0
0
0
0
0
0
0
0
0
0
0
0
0
0
0
0
0
0
0
1
1
0
0
0
0
0
0
0
0
0
0
0
0
0
0
0
0
0
0
0
0
1
1
0
0
0
0
0
0
0
0
0
0
0
0
0
0
0
0
0
0
0
0
0
0
0
0
0
0
0
0
0
0
0
0
0
1
1
0
0
0
0
0
0
0
0
0
0
0
0
0
0
0
0
0
0
0
0
1
1
0
0
0
0
0
0
0
0
0
0
0
0
0
0
0
0
0
0
0
0
0
0
0
0
0
0
0
0
0
0
0
0
0
1
1
0
0
0
0
0
0
0
0
0
0
0
0
0
0
0
0
0
0
0
0
1
1
0
0
0
0
0
0
0
0
0
0
0
0
0
0
0
0
0
0
0
0
0
0
0
0
0
0
0
0
0
0
0
0
0
1
1
0
0
0
0
0
0
0
0
0
0
0
0
0
0
0
0
0
0
0
0
1
1
0
0
0
0
0
0
0
0
0
0
0
0
0
0
0
0
0
0
0
0
0
0
0
0
0
0
0
0
0
0
0
0
0
1
1
0
0
0
0
0
0
0
0
0
0
0
0
0
0
0
0
0
0
0
0
0
1
1
0
0
0
0
0
0
0
0
0
0
0
0
0
0
0
0
0
0
0
0
0
0
0
0
0
0
0
0
0
0
0
0
0
0
1
1
0
0
0
0
0
0
0
0
0
0
0
0
0
0
0
0
0
0
0
0
0
0
0
0
0
0
0
0
0
0
0
0
0
0
0
0
0
0
0
0
0
0
0
0
0
0
0
0
0
0
0
0
0
0
0
0
0
1
1
0
0
0
0
0
0
0
0
0
0
0
0
0
0
0
0
0
0
0
0
0
0
0
0
0
0
0
0
0
0
0
0
0
0
0
0
0
0
0
0
0
0
0
0
0
0
0
0
0
0
0
0
0
0
0
0
0
1
1
0
0
0
0
0
0
0
0
0
0
0
0
0
0
0
0
0
0
0
0
0
0
0
0
0
0
0
0
0
0
0
0
0
0
0
0
0
0
0
0
0
0
0
0
0
0
0
0
0
0
0
0
0
0
0
0
0
1
1
0
0
0
0
0
0
0
0
0
0
0
0
0
0
0
0
0
0
0
0
0
0
0
0
0
0
0
0
0
0
0
0
0
0
0
0
0
0
0
0
0
0
0
0
0
0
0
0
0
0
0
0
0
0
0
0
0
1
1
0
0
0
0
0
0
0
0
0
0
0
0
0
0
0
0
0
0
0
0
0
0
0
0
0
0
0
0
0
0
0
0
0
0
0
0
0
0
0
0
0
0
0
0
0
0
0
0
0
0
0
0
0
0
0
0
0
1
1
0
0
0
0
0
0
0
0
0
0
0
0
0
0
0
0
0
0
0
0
0
0
0
0
0
0
0
0
0
0
0
0
0
0
0
0
0
0
0
0
0
0
0
0
0
0
0
0
0
0
0
0
0
0
0
0
0
1
1
0
0
0
0
0
0
0
0
0
0
0
0
0
0
0
0
0
0
0
0
0
0
0
0
0
0
0
0
0
0
0
0
0
0
0
0
0
0
0
0
0
0
0
0
0
0
0
0
0
0
0
0
0
0
0
0
0
1
1
0
0
0
0
0
0
0
0
0
0
0
0
0
0
0
0
0
0
0
0
0
0
0
0
0
0
0
0
0
0
0
0
0
0
0
0
0
0
0
0
0
0
0
0
0
0
0
0
0
0
0
0
0
0
0
0
0
1
1
0
0
0
0
0
0
0
0
0
0
0
0
0
0
0
0
0
0
0
0
0
0
0
0
0
0
0
0
0
0
0
0
0
0
0
0
0
0
0
0
0
0
0
0
0
0
0
0
0
0
0
0
0
0
0
0
0
1
1
0
0
0
0
0
0
0
0
0
0
0
0
0
0
0
0
0
0
0
0
0
0
0
0
0
0
0
0
0
0
0
0
0
0
0
0
0
0
0
0
0
0
0
0
0
0
0
0
0
0
0
0
0
0
0
0
0
1
1
0
0
0
0
0
0
0
0
0
0
0
0
0
0
0
0
0
0
0
0
0
1
1
0
0
0
0
0
0
0
0
0
0
0
0
0
0
0
0
0
0
0
0
0
0
0
0
0
0
0
0
0
0
0
0
0
0
1
1
0
0
0
0
0
0
0
0
0
0
0
0
0
0
0
0
0
0
0
0
1
1
0
0
0
0
0
0
0
0
0
0
0
0
0
0
0
0
0
0
0
0
0
0
0
0
0
0
0
0
0
0
0
0
0
1
1
0
0
0
0
0
0
0
0
0
0
0
0
0
0
0
0
0
0
0
0
1
1
0
0
0
0
0
0
0
0
0
0
0
0
0
0
0
0
0
0
0
0
0
0
0
0
0
0
0
0
0
0
0
0
0
1
1
0
0
0
0
0
0
0
0
0
0
0
0
0
0
0
0
0
0
0
0
1
1
0
0
0
0
0
0
0
0
0
0
0
0
0
0
0
0
0
0
0
0
0
0
0
0
0
0
0
0
0
0
0
0
0
1
1
0
0
0
0
0
0
0
0
0
0
0
0
0
0
0
0
0
0
0
0
1
1
0
0
0
0
0
0
0
0
0
0
0
0
0
0
0
0
0
0
0
0
0
0
0
0
0
0
0
0
0
0
0
0
0
1
1
0
0
0
0
0
0
0
0
0
0
0
0
0
0
0
0
0
0
0
0
1
1
0
0
0
0
0
0
0
0
0
0
0
0
0
0
0
0
0
0
0
0
0
0
0
0
0
0
0
0
0
0
0
0
0
1
1
0
0
0
0
0
0
0
0
0
0
0
0
0
0
0
0
0
0
0
0
1
1
0
0
0
0
0
0
0
0
0
0
0
0
0
0
0
0
0
0
0
0
0
0
0
0
0
0
0
0
0
0
0
0
0
1
1
0
0
0
0
0
0
0
0
0
0
0
0
0
0
0
0
0
0
0
0
1
1
0
0
0
0
0
0
0
0
0
0
0
0
0
0
0
0
0
0
0
0
0
0
0
0
0
0
0
0
0
0
0
0
0
1
1
0
0
0
0
0
0
0
0
0
0
0
0
0
0
0
0
0
0
0
0
1
1
0
0
0
0
0
0
0
0
0
0
0
0
0
0
0
0
0
0
0
0
0
0
0
0
0
0
0
0
0
0
0
0
0
1
1
0
0
0
0
0
0
0
0
0
0
0
0
0
0
0
0
0
0
0
0
1
1
0
0
0
0
0
0
0
0
0
0
0
0
0
0
0
0
0
0
0
0
0
0
0
0
0
0
0
0
0
0
0
0
0
1
1
0
0
0
0
0
0
0
0
0
0
0
0
0
0
0
0
0
0
0
0
1
1
0
0
0
0
0
0
0
0
0
0
0
0
0
0
0
0
0
0
0
0
0
0
0
0
0
0
0
0
0
0
0
0
0
1
1
0
0
0
0
0
0
0
0
0
0
0
0
0
0
0
0
0
0
0
0
1
1
0
0
0
0
0
0
0
0
0
0
0
0
0
0
0
0
0
0
0
0
0
0
0
0
0
0
0
0
0
0
0
0
0
1
1
0
0
0
0
0
0
0
0
0
0
0
0
0
0
0
0
0
0
0
0
1
1
0
0
0
0
0
0
0
0
0
0
0
0
0
0
0
0
0
0
0
0
0
0
0
0
0
0
0
0
0
0
0
0
0
1
1
0
0
0
0
0
0
0
0
0
0
0
0
0
0
0
0
0
0
0
0
1
1
0
0
0
0
0
0
0
0
0
0
0
0
0
0
0
0
0
0
0
0
0
0
0
0
0
0
0
0
0
0
0
0
0
1
1
0
0
0
0
0
0
0
0
0
0
0
0
0
0
0
0
0
0
0
0
1
1
0
0
0
0
0
0
0
0
0
0
0
0
0
0
0
0
0
0
0
0
0
0
0
0
0
0
0
0
0
0
0
0
0
1
1
0
0
0
0
0
0
0
0
0
0
0
0
0
0
0
0
0
0
0
0
1
1
0
0
0
0
0
0
0
0
0
0
0
0
0
0
0
0
0
0
0
0
0
0
0
0
0
0
0
0
0
0
0
0
0
1
1
0
0
0
0
0
0
0
0
0
0
0
0
0
0
0
0
0
0
0
0
1
1
0
0
0
0
0
0
0
0
0
0
0
0
0
0
0
0
0
0
0
0
0
0
0
0
0
0
0
0
0
0
0
0
0
1
1
0
0
0
0
0
0
0
0
0
0
0
0
0
0
0
0
0
0
0
0
1
1
0
0
0
0
0
0
0
0
0
0
0
0
0
0
0
0
0
0
0
0
0
0
0
0
0
0
0
0
0
0
0
0
0
1
1
0
0
0
0
0
0
0
0
0
0
0
0
0
0
0
0
0
0
0
0
1
1
0
0
0
0
0
0
0
0
0
0
0
0
0
0
0
0
0
0
0
0
0
0
0
0
0
0
0
0
0
0
0
0
0
1
1
0
0
0
0
0
0
0
0
0
0
0
0
0
0
0
0
0
0
0
0
1
1
0
0
0
0
0
0
0
0
0
0
0
0
0
0
0
0
0
0
0
0
0
0
0
0
0
0
0
0
0
0
0
0
0
1
1
0
0
0
0
0
0
0
0
0
0
0
0
0
0
0
0
0
0
0
0
1
1
0
0
0
0
0
0
0
0
0
0
0
0
0
0
0
0
0
0
0
0
0
0
0
0
0
0
0
0
0
0
0
0
0
1
1
0
0
0
0
0
0
0
0
0
0
0
0
0
0
0
0
0
0
0
0
1
1
0
0
0
0
0
0
0
0
0
0
0
0
0
0
0
0
0
0
0
0
0
0
0
0
0
0
0
0
0
0
0
0
0
1
1
1
1
1
1
1
1
1
1
1
1
1
1
1
1
1
1
1
1
1
1
1
1
1
1
1
1
1
1
1
1
1
1
1
1
1
1
1
1
1
1
1
1
1
1
1
1
1
1
1
1
1
1
1
1
1
1
				</DataArray>
				<DataArray type="Float64" Name="h" NumberOfComponents="1" Format="ascii">
1.1535193688
1.1549020514
1.1547887191
1.1545664351
1.1542424078
1.1538270054
1.1533332564
1.1527761199
1.1521719027
1.1515376079
1.1508902419
1.1502463037
1.1496213694
1.1490297572
1.1484842787
1.1479961314
1.1475748978
1.1472284580
1.1469630307
1.1467833158
1.1466924117
1.1466924117
1.2590229066
1.2581974456
1.2579536607
1.2574705147
1.2567482909
1.2557878527
1.2545909060
1.2531598887
1.2514985108
1.2496120922
1.2475074648
1.2451933047
1.2426803918
1.2399814595
1.2371113116
1.2340871065
1.2309283293
1.2276568875
1.2242975623
1.2208781339
1.2174293407
1.2139851640
1.2105826071
1.2072610702
1.2040619832
1.2010279568
1.1982013933
1.1956235392
1.1933333930
1.1913662471
1.1897528843
1.1885189649
1.1876840880
1.1872614594
1.1872614594
1.1549020514
1.1563092957
1.1561918940
1.1559614963
1.1556254551
1.1551943669
1.1546815811
1.1541024786
1.1534738805
1.1528133916
1.1521386886
1.1514669826
1.1508145810
1.1501965223
1.1496263007
1.1491157419
1.1486749806
1.1483123635
1.1480344866
1.1478463288
1.1477511728
1.1466924117
1.2581974456
1.2572808181
1.2570439389
1.2565741389
1.2558713524
1.2549359232
1.2537688805
1.2523718653
1.2507476902
1.2489007145
1.2468368036
1.2445636932
1.2420912881
1.2394315533
1.2365986350
1.2336091435
1.2304821160
1.2272390773
1.2239044631
1.2205057276
1.2170733003
1.2136408931
1.2102453182
1.2069259056
1.2037242108
1.2006832143
1.1978459705
1.1952546628
1.1929494538
1.1909669574
1.1893393313
1.1880935163
1.1872501930
1.1868233457
1.1872614594
1.1551726057
1.1565776204
1.1564603244
1.1562301305
1.1558943580
1.1554635542
1.1549510082
1.1543720345
1.1537433923
1.1530826370
1.1524074156
1.1517349338
1.1510815191
1.1504622538
1.1498906972
1.1493787547
1.1489366501
1.1485728205
1.1482939459
1.1481050769
1.1480095480
1.1469607326
1.2578252771
1.2569207769
1.2566855476
1.2562190518
1.2555212689
1.2545925932
1.2534340968
1.2520474413
1.2504354234
1.2486023346
1.2465539124
1.2442977006
1.2418433489
1.2392025144
1.2363889973
1.2334190409
1.2303113175
1.2270870111
1.2237702569
1.2203882636
1.2169712805
1.2135529098
1.2101699265
1.2068616737
1.2036697625
1.2006372559
1.1978073039
1.1952221854
1.1929221486
1.1909438789
1.1893195888
1.1880762567
1.1872345879
1.1868085804
1.1872398816
1.1557126505
1.1571131694
1.1569960464
1.1567661841
1.1564308357
1.1560004534
1.1554882094
1.1549092924
1.1542803447
1.1536188306
1.1529423446
1.1522680879
1.1516124332
1.1509905558
1.1504161483
1.1499012783
1.1494563501
1.1490899836
1.1488090285
1.1486186797
1.1485223759
1.1474933816
1.2570830277
1.2562017055
1.2559698944
1.2555102295
1.2548227557
1.2539079372
1.2527668953
1.2514012971
1.2498138725
1.2480087488
1.2459913881
1.2437689399
1.2413505433
1.2387472488
1.2359721805
1.2330408687
1.2299712804
1.2267839410
1.2235024090
1.2201534237
1.2167668965
1.2133762312
1.2100181212
1.2067319306
1.2035593748
1.2005436739
1.1977281616
1.1951553028
1.1928655125
1.1908956165
1.1892779356
1.1880395225
1.1872011309
1.1867767875
1.1871945829
1.1565156303
1.1579088904
1.1577918854
1.1575622391
1.1572271089
1.1567968121
1.1562843599
1.1557047705
1.1550745334
1.1544109998
1.1537317094
1.1530538802
1.1523939748
1.1517673289
1.1511878536
1.1506678778
1.1502180919
1.1498474032
1.1495629281
1.1493700876
1.1492724841
1.1482736632
1.2559895382
1.2551413751
1.2549146191
1.2544650452
1.2537927829
1.2528983841
1.2517830264
1.2504483687
1.2488970283
1.2471328804
1.2451609771
1.2429878906
1.2406220184
1.2380735329
1.2353545821
1.2324796686
1.2294657401
1.2263323713
1.2231022844
1.2198015414
1.2164595610
1.2131094584
1.2097877957
1.2065339600
1.2033898103
1.2003987885
1.1976044912
1.1950496501
1.1927749219
1.1908173361
1.1892093715
1.1879781898
1.1871446163
1.1867227197
1.1871205311
1.1575718986
1.1589544378
1.1588373191
1.1586074220
1.1582717848
1.1578405613
1.1573265741
1.1567446499
1.1561111162
1.1554432188
1.1547584704
1.1540741546
1.1534068960
1.1527722824
1.1521845517
1.1516564132
1.1511989678
1.1508215331
1.1505316040
1.1503349224
1.1502353229
1.1492775985
1.2545717321
1.2537652052
1.2535449557
1.2531083570
1.2524556408
1.2515874640
1.2505050677
1.2492100908
1.2477049986
1.2459933377
1.2440796348
1.2419697278
1.2396710738
1.2371927343
1.2345456228
1.2317429399
1.2288003419
1.2257361922
1.2225721470
1.2193334003
1.2160487308
1.2127508779
1.2094762151
1.2062641451
1.2031566976
1.2001975869
1.1974307372
1.1948992166
1.1926439879
1.1907023406
1.1891069562
1.1878851372
1.1870578018
1.1866390743
1.1870107633
1.1588685828
1.1602360862
1.1601183980
1.1598873408
1.1595498200
1.1591158139
1.1585979524
1.1580108798
1.1573707875
1.1566948611
1.1560006501
1.1553055880
1.1546265638
1.1539795372
1.1533792056
1.1528388002
1.1523699784
1.1519826099
1.1516846996
1.1514824216
1.1513799240
1.1504747262
1.2528638117
1.2521055409
1.2518930135
1.2514717979
1.2508422471
1.2500051400
1.2489617894
1.2477138073
1.2462634748
1.2446139489
1.2427691385
1.2407340216
1.2385149550
1.2361197020
1.2335577321
1.2308407215
1.2279828098
1.2250009306
1.2219154765
1.2187506086
1.2155343310
1.2122989235
1.2090805071
1.2059184817
1.2028550596
1.1999342615
1.1972003881
1.1946968983
1.1924651138
1.1905426310
1.1889623730
1.1877518111
1.1869319762
1.1865170608
1.1868569706
1.1603892726
1.1617364666
1.1616174910
1.1613838493
1.1610423159
1.1606027046
1.1600774794
1.1594811477
1.1588298323
1.1581407455
1.1574315790
1.1567200374
1.1560234089
1.1553581714
1.1547396379
1.1541817246
1.1536968120
1.1532954852
1.1529864125
1.1527763323
1.1526698049
1.1518288548
1.2509066455
1.2502011480
1.2499972728
1.2495932754
1.2489896518
1.2481873250
1.2471876926
1.2459923388
1.2446033413
1.2430234251
1.2412558161
1.2393045404
1.2371747380
1.2348727365
1.2324064064
1.2297857329
1.2270231666
1.2241340409
1.2211373232
1.2180560064
1.2149172073
1.2117526621
1.2085981718
1.2054931048
1.2024798528
1.1996027592
1.1969065315
1.1944350582
1.1922300584
1.1903294726
1.1887664972
1.1875687960
1.1867575303
1.1863469721
1.1866500820
1.1621144694
1.1634350969
1.1633138332
1.1630756287
1.1627271517
1.1622780933
1.1617408159
1.1611297780
1.1604611445
1.1597522857
1.1590211814
1.1582859628
1.1575644799
1.1568738976
1.1562303188
1.1556485240
1.1551418017
1.1547216391
1.1543975466
1.1541769874
1.1540650563
1.1533000007
1.2487456912
1.2480952296
1.2479006170
1.2475150352
1.2469391538
1.2461740701
1.2452212888
1.2440823783
1.2427592078
1.2412540483
1.2395694040
1.2377082915
1.2356745597
1.2334730125
1.2311098218
1.2285931706
1.2259337039
1.2231450311
1.2202445790
1.2172540643
1.2141996381
1.2111123974
1.2080277623
1.2049850324
1.2020267620
1.1991976161
1.1965427223
1.1941064207
1.1919308526
1.1900543286
1.1885103429
1.1873267709
1.1865249194
1.1861191510
1.1863812430
1.1640215733
1.1653084451
1.1651836075
1.1649383091
1.1645791644
1.1641158222
1.1635606507
1.1629281929
1.1622348117
1.1614982067
1.1607368260
1.1599694098
1.1592145511
1.1584902830
1.1578136804
1.1572005779
1.1566653725
1.1562206629
1.1558770146
1.1556428148
1.1555238531
1.1548458020
1.2464296584
1.2458341960
1.2456491095
1.2452824548
1.2447351219
1.2440084303
1.2431040308
1.2420235031
1.2407685206
1.2393408974
1.2377424004
1.2359750096
1.2340412475
1.2319443537
1.2296887522
1.2272807669
1.2247291697
1.2220457819
1.2192463923
1.2163514213
1.2133859438
1.2103803474
1.2073696204
1.2043929489
1.2014930219
1.1987148112
1.1961038617
1.1937049711
1.1915607150
1.1897097891
1.1881860023
1.1870174565
1.1862256162
1.1858249446
1.1860427790
1.1660849257
1.1673300413
1.1672000802
1.1669446476
1.1665703902
1.1660870368
1.1655071164
1.1648454361
1.1641187535
1.1633453026
1.1625442037
1.1617350015
1.1609372180
1.1601699330
1.1594513715
1.1587986115
1.1582273700
1.1577515944
1.1573831642
1.1571316491
1.1570037542
1.1564227836
1.2440093461
1.2434666135
1.2432909403
1.2429429934
1.2424239596
1.2417354583
1.2408793512
1.2398572776
1.2386707440
1.2373211203
1.2358094385
1.2341366400
1.2323039188
1.2303129495
1.2281664055
1.2258687392
1.2234268403
1.2208507186
1.2181544982
1.2153572289
1.2124829097
1.2095611428
1.2066264318
1.2037178087
1.2008780625
1.1981524458
1.1955869045
1.1932266875
1.1911148034
1.1892903390
1.1877874273
1.1866344061
1.1858529083
1.1854575057
1.1856289810
1.1682765744
1.1694713301
1.1693344807
1.1690654634
1.1686710758
1.1681612930
1.1675490053
1.1668495068
1.1660801800
1.1652600204
1.1644090327
1.1635477575
1.1626968158
1.1618764904
1.1611063131
1.1604047812
1.1597891486
1.1592749825
1.1588758013
1.1586027095
1.1584636492
1.1579883269
1.2415353843
1.2410410369
1.2408742626
1.2405440443
1.2400519947
1.2394001599
1.2385907137
1.2376254263
1.2365056775
1.2352324123
1.2338059399
1.2322261764
1.2304930085
1.2286065754
1.2265678305
1.2243793903
1.2220462895
1.2195767457
1.2169832213
1.2142833466
1.2115001642
1.2086623097
1.2058038116
1.2029635096
1.2001842574
1.1975115557
1.1949917262
1.1926704522
1.1905911645
1.1887933377
1.1873114321
1.1861740268
1.1854029302
1.1850128305
1.1851371175
1.1705665409
1.1717020129
1.1715563707
1.1712700563
1.1708501682
1.1703071317
1.1696544396
1.1689081290
1.1680864611
1.1672094262
1.1662981161
1.1653742321
1.1644596249
1.1635758903
1.1627439774
1.1619839472
1.1613148051
1.1607540499
1.1603172598
1.1600175754
1.1598646715
1.1595016545
1.2390569703
1.2386048303
1.2384459935
1.2381317150
1.2376642559
1.2370462921
1.2362804592
1.2353687501
1.2343124608
1.2331121244
1.2317673351
1.2302769994
1.2286397281
1.2268541712
1.2249196199
1.2228369164
1.2206093080
1.2182432744
1.2157496601
1.2131447044
1.2104504916
1.2076946727
1.2049107810
1.2021374364
1.1994175258
1.1967967640
1.1943218191
1.1920387848
1.1899914967
1.1882198072
1.1867585020
1.1856364025
1.1848754977
1.1844905977
1.1845682291
1.1729232831
1.1739905679
1.1738341832
1.1735267839
1.1730759423
1.1724927676
1.1717916245
1.1709895708
1.1701060069
1.1691621423
1.1681803282
1.1671835419
1.1661949288
1.1652374311
1.1643334502
1.1635046963
1.1627721198
1.1621555091
1.1616730588
1.1613406802
1.1611705756
1.1609243217
1.2366209313
1.2362032978
1.2360508925
1.2357498418
1.2353034387
1.2347153108
1.2339887659
1.2331261260
1.2321286298
1.2309963864
1.2297282595
1.2283221479
1.2267754105
1.2250852586
1.2232493935
1.2212669714
1.2191395395
1.2168719324
1.2144734660
1.2119590575
1.2093497648
1.2066723539
1.2039598340
1.2012505898
1.1985875179
1.1960165177
1.1935845729
1.1913381622
1.1893215036
1.1875748135
1.1861331961
1.1850257137
1.1842745377
1.1838946045
1.1839274882
1.1753146873
1.1763052921
1.1761362797
1.1758041463
1.1753171255
1.1746872601
1.1739300695
1.1730639146
1.1721095870
1.1710897113
1.1700280199
1.1689488083
1.1678764860
1.1668352629
1.1658489100
1.1649407686
1.1641338726
1.1634506932
1.1629127778
1.1625399044
1.1623481163
1.1622207378
1.2342702585
1.2338782716
1.2337300491
1.2334383596
1.2330081973
1.2324446420
1.2317519555
1.2309328863
1.2299885951
1.2289186989
1.2277212660
1.2263931467
1.2249304511
1.2233289914
1.2215849564
1.2196959216
1.2176618476
1.2154860515
1.2131764175
1.2107466202
1.2082167216
1.2056126454
1.2029669001
1.2003176335
1.1977077388
1.1951832779
1.1927915251
1.1905793187
1.1885912369
1.1868678437
1.1854445531
1.1843506632
1.1836085283
1.1832332129
1.1832245620
1.1777085033
1.1786147608
1.1784314135
1.1780712581
1.1775433793
1.1768610060
1.1760410925
1.1751035741
1.1740708590
1.1729671388
1.1718175812
1.1706477456
1.1694831492
1.1683490348
1.1672702839
1.1662716758
1.1653783366
1.1646158035
1.1640099226
1.1635859712
1.1633660449
1.1633572877
1.2320439578
1.2316679965
1.2315205456
1.2312327190
1.2308123849
1.2302668389
1.2296016387
1.2288199990
1.2279228797
1.2269092339
1.2257761723
1.2245193981
1.2231337275
1.2216136007
1.2199537679
1.2181503413
1.2162018414
1.2141101941
1.2118819848
1.2095297551
1.2070726088
1.2045357080
1.2019510933
1.1993566941
1.1967953968
1.1943134151
1.1919582951
1.1897772155
1.1878150950
1.1861128295
1.1847061328
1.1836245328
1.1828905643
1.1825194211
1.1824735927
1.1800730296
1.1808885041
1.1806893972
1.1802984958
1.1797259198
1.1789863253
1.1780983656
1.1770837955
1.1759668291
1.1747733223
1.1735298529
1.1722630791
1.1709993152
1.1697643976
1.1685838033
1.1674832666
1.1664897439
1.1656320795
1.1649415362
1.1644512647
1.1641931526
1.1643004868
1.2299776097
1.2296076985
1.2294555686
1.2291635467
1.2287444259
1.2282088276
1.2275639468
1.2268133381
1.2259574464
1.2249941863
1.2239194326
1.2227275369
1.2214119390
1.2199657116
1.2183822324
1.2166562856
1.2147850955
1.2127693636
1.2106145349
1.2083321451
1.2059404046
1.2034638081
1.2009339872
1.1983886711
1.1958707554
1.1934265982
1.1911040085
1.1889504956
1.1870113038
1.1853276487
1.1839355353
1.1828647143
1.1821378982
1.1817704081
1.1816926465
1.1823779807
1.1830978325
1.1828819127
1.1824582794
1.1818382567
1.1810381480
1.1800785433
1.1789832298
1.1777783755
1.1764915440
1.1751506206
1.1737830825
1.1724155587
1.1710737834
1.1697829551
1.1685688153
1.1674593622
1.1664865456
1.1656881136
1.1651083490
1.1647951909
1.1650140000
1.2281043723
1.2277305847
1.2275644448
1.2272558784
1.2268261238
1.2262906060
1.2256582923
1.2249325922
1.2241127045
1.2231948919
1.2221732926
1.2210406307
1.2197888444
1.2184095478
1.2168948875
1.2152384379
1.2134363141
1.2114881579
1.2093984739
1.2071779457
1.2048439682
1.2024204988
1.1999388140
1.1974364860
1.1949564244
1.1925451277
1.1902506661
1.1881208836
1.1862013405
1.1845335657
1.1831538547
1.1820921739
1.1813714088
1.1810070061
1.1809031138
1.1845947214
1.1852160100
1.1849826612
1.1845251773
1.1838562344
1.1829939765
1.1819611378
1.1807837185
1.1794899559
1.1781091260
1.1766702630
1.1752012896
1.1737285011
1.1722765441
1.1708689919
1.1695299337
1.1682866641
1.1671729748
1.1662334478
1.1655273993
1.1651289058
1.1654527145
1.2264583302
1.2260711641
1.2258738456
1.2255289238
1.2250718357
1.2245243849
1.2238967277
1.2231908032
1.2224032629
1.2215276410
1.2205556847
1.2194781127
1.2182849735
1.2169666250
1.2155139758
1.2139196200
1.2121787256
1.2102899510
1.2082574152
1.2060909385
1.2038072092
1.2014297852
1.1989896694
1.1965243015
1.1940765698
1.1916930568
1.1894223124
1.1873123720
1.1854091290
1.1837544297
1.1823848718
1.1813306411
1.1806147895
1.1802528866
1.1801288459
1.1866967433
1.1872186484
1.1869677259
1.1864762053
1.1857582395
1.1848339777
1.1837284774
1.1824701104
1.1810892852
1.1796169919
1.1780832488
1.1765160188
1.1749405099
1.1733790308
1.1718516334
1.1703780972
1.1689816601
1.1676944673
1.1665659054
1.1656733340
1.1651316829
1.1655523844
1.2250807449
1.2246714256
1.2244091648
1.2239949976
1.2234868586
1.2229131980
1.2222830258
1.2215939516
1.2208377650
1.2200036575
1.2190798575
1.2180547091
1.2169165664
1.2156544125
1.2142581735
1.2127195793
1.2110330793
1.2091968457
1.2072141149
1.2050943573
1.2028537129
1.2005155080
1.1981105877
1.1956763217
1.1932556840
1.1908954579
1.1886441928
1.1865503377
1.1846601132
1.1830157244
1.1816540633
1.1806055672
1.1798934684
1.1795334543
1.1793950203
1.1886599439
1.1890838809
1.1888157142
1.1882909089
1.1875251951
1.1865408652
1.1853654576
1.1840298679
1.1825667964
1.1810089978
1.1793873867
1.1777296480
1.1760591918
1.1743946210
1.1727500852
1.1711371900
1.1695693241
1.1680693022
1.1666832681
1.1655036228
1.1647021953
1.1652102451
1.2240320390
1.2235927641
1.2231951276
1.2226557409
1.2220631934
1.2214479850
1.2208108816
1.2201396952
1.2194177849
1.2186280066
1.2177542654
1.2167817051
1.2156971595
1.2144883750
1.2131445350
1.2116567185
1.2100189020
1.2082288170
1.2062893829
1.2042097311
1.2020056256
1.1997003190
1.1973246207
1.1949159618
1.1925174314
1.1901759702
1.1879403583
1.1858593213
1.1839793523
1.1823429135
1.1809872210
1.1799429379
1.1792335107
1.1788748012
1.1787271421
1.1904623731
1.1907920179
1.1905073829
1.1899509257
1.1891400313
1.1880992490
1.1868587412
1.1854520889
1.1839144578
1.1822805320
1.1805822252
1.1788468960
1.1770957685
1.1753426327
1.1735932801
1.1718462721
1.1700962657
1.1683420325
1.1666051503
1.1649697610
1.1636615985
1.1642460783
1.2234169082
1.2229409704
1.2222536658
1.2214939088
1.2207731780
1.2201039286
1.2194627814
1.2188181942
1.2181400503
1.2174024526
1.2165841143
1.2156673924
1.2146372159
1.2134807438
1.2121866409
1.2107457926
1.2091519790
1.2074028004
1.2055010670
1.2034557763
1.2012825107
1.1990046055
1.1966529337
1.1942650592
1.1918842787
1.1895577179
1.1873343709
1.1852632395
1.1833910499
1.1817605546
1.1804092111
1.1793679195
1.1786603433
1.1783025247
1.1781500020
1.1920843670
1.1923255892
1.1920256515
1.1914399384
1.1905875440
1.1894953617
1.1881963064
1.1867268239
1.1851247950
1.1834271695
1.1816672731
1.1798725937
1.1780625237
1.1762459036
1.1744187118
1.1725618980
1.1706401267
1.1686037941
1.1664026973
1.1640329197
1.1616721518
1.1623205873
1.2234371070
1.2229188352
1.2215893828
1.2204521836
1.2195563745
1.2188357225
1.2182098114
1.2176131755
1.2169976409
1.2163264980
1.2155731052
1.2147176367
1.2137443997
1.2126403958
1.2113945413
1.2099978916
1.2084444518
1.2067319971
1.2048634525
1.2028478509
1.2007007838
1.1984457929
1.1961139199
1.1937429335
1.1913763565
1.1890615380
1.1868477240
1.1847841575
1.1829178067
1.1812916645
1.1799434320
1.1789042253
1.1781979030
1.1778406942
1.1776866585
1.1935082552
1.1936689606
1.1933552026
1.1927432393
1.1918538961
1.1907164614
1.1893667045
1.1878441208
1.1861896277
1.1844429657
1.1826396723
1.1808085305
1.1789686890
1.1771259267
1.1752680245
1.1733577011
1.1713210954
1.1690293259
1.1662725884
1.1627402443
1.1580855179
1.1587834380
1.2245074796
1.2239418941
1.2211361492
1.2193837507
1.2182954567
1.2175697748
1.2170121307
1.2165054889
1.2159822694
1.2153986021
1.2147235338
1.2139370025
1.2130243780
1.2119739145
1.2107755438
1.2094211327
1.2079053129
1.2062263226
1.2043874455
1.2023979170
1.2002734866
1.1980379973
1.1957227506
1.1933657634
1.1910108119
1.1887054837
1.1864992622
1.1844416314
1.1825797788
1.1809569110
1.1796109662
1.1785732500
1.1778678136
1.1775110487
1.1773577227
1.1947178863
1.1948078203
1.1944819632
1.1938471950
1.1929260454
1.1917501888
1.1903582937
1.1887930553
1.1870987673
1.1853186088
1.1834914593
1.1816493055
1.1798142071
1.1779939919
1.1761763591
1.1743176726
1.1723189629
1.1699712099
1.1668216674
1.1618339260
1.1525228241
1.1532568493
1.2275169930
1.2268990751
1.2205880437
1.2179427150
1.2167788507
1.2161999087
1.2158235589
1.2154795543
1.2150907654
1.2146202928
1.2140391174
1.2133299468
1.2124818800
1.2114861372
1.2103347390
1.2090210181
1.2075406507
1.2058926123
1.2040807514
1.2021146451
1.2000103176
1.1977919930
1.1954912726
1.1931464430
1.1908015392
1.1885043792
1.1863046627
1.1842520918
1.1823940488
1.1807739442
1.1794299123
1.1783934380
1.1776887415
1.1773323637
1.1771808601
1.1956988320
1.1957293907
1.1953933157
1.1947394524
1.1937919368
1.1925847284
1.1911593357
1.1895616995
1.1878397289
1.1860406162
1.1842077340
1.1823784787
1.1805820915
1.1788371304
1.1771499439
1.1755136447
1.1739090630
1.1723149599
1.1707457276
1.1693766701
1.1690500808
1.1768052825
1.1883219317
1.1817895558
1.2002860607
1.2107973070
1.2129172964
1.2138027754
1.2142554901
1.2144980079
1.2145855652
1.2145294418
1.2143322129
1.2140004110
1.2135271981
1.2129021163
1.2121211930
1.2111804912
1.2100751590
1.2088005700
1.2073537906
1.2057347405
1.2039479685
1.2020034835
1.1999176824
1.1977151998
1.1954279355
1.1930944453
1.1907590004
1.1884696165
1.1862761799
1.1842285733
1.1823743370
1.1807570471
1.1794150115
1.1783798706
1.1776759945
1.1773200562
1.1771705117
1.1964381353
1.1964221782
1.1960778421
1.1954086785
1.1944402467
1.1932085723
1.1917577961
1.1901369582
1.1883975511
1.1865909223
1.1847653153
1.1829641876
1.1812248582
1.1795772829
1.1780451922
1.1766495405
1.1754166603
1.1743992910
1.1737230187
1.1736918150
1.1750884583
1.1805076708
1.1874368628
1.1809475085
1.1949163109
1.2038971882
1.2081605588
1.2106235098
1.2121097703
1.2130145186
1.2135314317
1.2137613031
1.2137599777
1.2135676097
1.2132026850
1.2126617895
1.2119468653
1.2110594357
1.2099981579
1.2087606891
1.2073456218
1.2057539085
1.2039908310
1.2020668418
1.1999988141
1.1978117428
1.1955378030
1.1932157770
1.1908901260
1.1886090100
1.1864224439
1.1843804362
1.1825306398
1.1809167574
1.1795772375
1.1785438482
1.1778410869
1.1774857403
1.1773375318
1.1969243743
1.1968760178
1.1965253636
1.1958446030
1.1948604579
1.1936106839
1.1921416860
1.1905052424
1.1887560968
1.1869494508
1.1851381183
1.1833712346
1.1816934218
1.1801441882
1.1787601502
1.1775795556
1.1766505233
1.1760489017
1.1759091734
1.1764770782
1.1782104408
1.1819418990
1.1863132884
1.1868269868
1.1947696457
1.2013143230
1.2056485711
1.2086144951
1.2106213219
1.2119506790
1.2127866525
1.2132495483
1.2134175895
1.2133487002
1.2130802092
1.2126167020
1.2119624898
1.2111240931
1.2101034460
1.2089003575
1.2075148710
1.2059489238
1.2042084743
1.2023043776
1.2002540116
1.1980826571
1.1958226977
1.1935130695
1.1911983444
1.1889267496
1.1867483553
1.1847132258
1.1828690703
1.1812596687
1.1799235682
1.1788926346
1.1781914695
1.1778369552
1.1776889979
1.1971484652
1.1970827999
1.1967276855
1.1960388098
1.1950437417
1.1937815358
1.1923003504
1.1906541435
1.1889003072
1.1870972277
1.1853015247
1.1835669967
1.1819440420
1.1804792108
1.1792176617
1.1782074014
1.1775057735
1.1771925061
1.1773874012
1.1782699688
1.1800933451
1.1831154399
1.1866849557
1.1894299747
1.1950348881
1.2002716168
1.2043841660
1.2074947930
1.2097587782
1.2113447535
1.2123975288
1.2130313176
1.2133303071
1.2133601907
1.2131698130
1.2127715289
1.2121692760
1.2113734885
1.2103887233
1.2092165369
1.2078581748
1.2063163951
1.2045976767
1.2027132347
1.2006809070
1.1985261468
1.1962814438
1.1939857865
1.1916837572
1.1894235539
1.1872552108
1.1852287657
1.1833919132
1.1817884530
1.1804569858
1.1794294447
1.1787305102
1.1783771394
1.1782282543
1.1971034899
1.1970361593
1.1966783253
1.1959845464
1.1949828921
1.1937132199
1.1922248215
1.1905731184
1.1888173375
1.1870181293
1.1852348433
1.1835246071
1.1819418486
1.1805378245
1.1793630422
1.1784709842
1.1779229923
1.1777977444
1.1782006982
1.1792670389
1.1811460619
1.1839162891
1.1872569789
1.1906954308
1.1953837377
1.1999816823
1.2039114574
1.2070589040
1.2094514150
1.2111856492
1.2123740332
1.2131206617
1.2135098415
1.2136098256
1.2134762098
1.2131275070
1.2125659730
1.2118046647
1.2108499100
1.2097044628
1.2083704215
1.2068510861
1.2051531388
1.2032882798
1.2012746412
1.1991376991
1.1969099193
1.1946302229
1.1923430826
1.1900965557
1.1879405349
1.1859249366
1.1840973637
1.1825015730
1.1811761689
1.1801531175
1.1794571513
1.1791052819
1.1789545680
1.1967861488
1.1967332116
1.1963743258
1.1956786865
1.1946745016
1.1934018976
1.1919106098
1.1902567036
1.1885002974
1.1867032212
1.1849263200
1.1832286066
1.1816668413
1.1802950545
1.1791669625
1.1783394536
1.1778766924
1.1778579102
1.1783830645
1.1795689502
1.1815251255
1.1842793994
1.1876288772
1.1913214764
1.1957399170
1.2001254828
1.2039983677
1.2071771399
1.2096397376
1.2114521175
1.2127122324
1.2135196480
1.2139589116
1.2140992006
1.2139996730
1.2136827265
1.2131489739
1.2124127503
1.2114812298
1.2103577355
1.2090447936
1.2075457680