<VTKFile type="UnstructuredGrid" version="0.1">
	<UnstructuredGrid>
		<Piece NumberOfPoints="13548" NumberOfCells="3387">
			<CellData>
				<DataArray type="Int32" Name="ghost" NumberOfComponents="1" Format="ascii">
1
1
1
1
1
1
1
1
1
1
1
1
1
1
1
1
1
1
1
1
1
1
1
1
1
1
1
1
1
1
1
1
1
1
1
1
1
1
1
1
1
1
1
1
1
1
1
1
1
1
1
1
1
1
1
1
1
1
0
0
0
0
0
0
0
0
0
0
0
0
0
0
0
0
0
0
0
0
1
1
0
0
0
0
0
0
0
0
0
0
0
0
0
0
0
0
0
0
0
0
0
0
0
0
0
0
0
0
0
0
0
0
0
1
1
0
0
0
0
0
0
0
0
0
0
0
0
0
0
0
0
0
0
0
0
1
1
0
0
0
0
0
0
0
0
0
0
0
0
0
0
0
0
0
0
0
0
0
0
0
0
0
0
0
0
0
0
0
0
0
1
1
0
0
0
0
0
0
0
0
0
0
0
0
0
0
0
0
0
0
0
0
1
1
0
0
0
0
0
0
0
0
0
0
0
0
0
0
0
0
0
0
0
0
0
0
0
0
0
0
0
0
0
0
0
0
0
1
1
0
0
0
0
0
0
0
0
0
0
0
0
0
0
0
0
0
0
0
0
1
1
0
0
0
0
0
0
0
0
0
0
0
0
0
0
0
0
0
0
0
0
0
0
0
0
0
0
0
0
0
0
0
0
0
1
1
0
0
0
0
0
0
0
0
0
0
0
0
0
0
0
0
0
0
0
0
1
1
0
0
0
0
0
0
0
0
0
0
0
0
0
0
0
0
0
0
0
0
0
0
0
0
0
0
0
0
0
0
0
0
0
1
1
0
0
0
0
0
0
0
0
0
0
0
0
0
0
0
0
0
0
0
0
1
1
0
0
0
0
0
0
0
0
0
0
0
0
0
0
0
0
0
0
0
0
0
0
0
0
0
0
0
0
0
0
0
0
0
1
1
0
0
0
0
0
0
0
0
0
0
0
0
0
0
0
0
0
0
0
0
1
1
0
0
0
0
0
0
0
0
0
0
0
0
0
0
0
0
0
0
0
0
0
0
0
0
0
0
0
0
0
0
0
0
0
1
1
0
0
0
0
0
0
0
0
0
0
0
0
0
0
0
0
0
0
0
0
1
1
0
0
0
0
0
0
0
0
0
0
0
0
0
0
0
0
0
0
0
0
0
0
0
0
0
0
0
0
0
0
0
0
0
1
1
0
0
0
0
0
0
0
0
0
0
0
0
0
0
0
0
0
0
0
0
1
1
0
0
0
0
0
0
0
0
0
0
0
0
0
0
0
0
0
0
0
0
0
0
0
0
0
0
0
0
0
0
0
0
0
1
1
0
0
0
0
0
0
0
0
0
0
0
0
0
0
0
0
0
0
0
0
1
1
0
0
0
0
0
0
0
0
0
0
0
0
0
0
0
0
0
0
0
0
0
0
0
0
0
0
0
0
0
0
0
0
0
1
1
0
0
0
0
0
0
0
0
0
0
0
0
0
0
0
0
0
0
0
0
1
1
0
0
0
0
0
0
0
0
0
0
0
0
0
0
0
0
0
0
0
0
0
0
0
0
0
0
0
0
0
0
0
0
0
1
1
0
0
0
0
0
0
0
0
0
0
0
0
0
0
0
0
0
0
0
0
1
1
0
0
0
0
0
0
0
0
0
0
0
0
0
0
0
0
0
0
0
0
0
0
0
0
0
0
0
0
0
0
0
0
0
1
1
0
0
0
0
0
0
0
0
0
0
0
0
0
0
0
0
0
0
0
0
1
1
0
0
0
0
0
0
0
0
0
0
0
0
0
0
0
0
0
0
0
0
0
0
0
0
0
0
0
0
0
0
0
0
0
1
1
0
0
0
0
0
0
0
0
0
0
0
0
0
0
0
0
0
0
0
0
1
1
0
0
0
0
0
0
0
0
0
0
0
0
0
0
0
0
0
0
0
0
0
0
0
0
0
0
0
0
0
0
0
0
0
1
1
0
0
0
0
0
0
0
0
0
0
0
0
0
0
0
0
0
0
0
0
1
1
0
0
0
0
0
0
0
0
0
0
0
0
0
0
0
0
0
0
0
0
0
0
0
0
0
0
0
0
0
0
0
0
0
1
1
0
0
0
0
0
0
0
0
0
0
0
0
0
0
0
0
0
0
0
0
1
1
0
0
0
0
0
0
0
0
0
0
0
0
0
0
0
0
0
0
0
0
0
0
0
0
0
0
0
0
0
0
0
0
0
1
1
0
0
0
0
0
0
0
0
0
0
0
0
0
0
0
0
0
0
0
0
1
1
0
0
0
0
0
0
0
0
0
0
0
0
0
0
0
0
0
0
0
0
0
0
0
0
0
0
0
0
0
0
0
0
0
1
1
0
0
0
0
0
0
0
0
0
0
0
0
0
0
0
0
0
0
0
0
1
1
0
0
0
0
0
0
0
0
0
0
0
0
0
0
0
0
0
0
0
0
0
0
0
0
0
0
0
0
0
0
0
0
0
1
1
0
0
0
0
0
0
0
0
0
0
0
0
0
0
0
0
0
0
0
0
1
1
0
0
0
0
0
0
0
0
0
0
0
0
0
0
0
0
0
0
0
0
0
0
0
0
0
0
0
0
0
0
0
0
0
1
1
0
0
0
0
0
0
0
0
0
0
0
0
0
0
0
0
0
0
0
0
1
1
0
0
0
0
0
0
0
0
0
0
0
0
0
0
0
0
0
0
0
0
0
0
0
0
0
0
0
0
0
0
0
0
0
1
1
0
0
0
0
0
0
0
0
0
0
0
0
0
0
0
0
0
0
0
0
1
1
0
0
0
0
0
0
0
0
0
0
0
0
0
0
0
0
0
0
0
0
0
0
0
0
0
0
0
0
0
0
0
0
0
1
1
0
0
0
0
0
0
0
0
0
0
0
0
0
0
0
0
0
0
0
0
1
1
0
0
0
0
0
0
0
0
0
0
0
0
0
0
0
0
0
0
0
0
0
0
0
0
0
0
0
0
0
0
0
0
0
1
1
0
0
0
0
0
0
0
0
0
0
0
0
0
0
0
0
0
0
0
0
1
1
0
0
0
0
0
0
0
0
0
0
0
0
0
0
0
0
0
0
0
0
0
0
0
0
0
0
0
0
0
0
0
0
0
1
1
0
0
0
0
0
0
0
0
0
0
0
0
0
0
0
0
0
0
0
0
1
1
0
0
0
0
0
0
0
0
0
0
0
0
0
0
0
0
0
0
0
0
0
0
0
0
0
0
0
0
0
0
0
0
0
1
1
0
0
0
0
0
0
0
0
0
0
0
0
0
0
0
0
0
0
0
0
0
1
1
0
0
0
0
0
0
0
0
0
0
0
0
0
0
0
0
0
0
0
0
0
0
0
0
0
0
0
0
0
0
0
0
0
0
1
1
0
0
0
0
0
0
0
0
0
0
0
0
0
0
0
0
0
0
0
0
0
0
0
0
0
0
0
0
0
0
0
0
0
0
0
0
0
0
0
0
0
0
0
0
0
0
0
0
0
0
0
0
0
0
0
0
0
1
1
0
0
0
0
0
0
0
0
0
0
0
0
0
0
0
0
0
0
0
0
0
0
0
0
0
0
0
0
0
0
0
0
0
0
0
0
0
0
0
0
0
0
0
0
0
0
0
0
0
0
0
0
0
0
0
0
0
1
1
0
0
0
0
0
0
0
0
0
0
0
0
0
0
0
0
0
0
0
0
0
0
0
0
0
0
0
0
0
0
0
0
0
0
0
0
0
0
0
0
0
0
0
0
0
0
0
0
0
0
0
0
0
0
0
0
0
1
1
0
0
0
0
0
0
0
0
0
0
0
0
0
0
0
0
0
0
0
0
0
0
0
0
0
0
0
0
0
0
0
0
0
0
0
0
0
0
0
0
0
0
0
0
0
0
0
0
0
0
0
0
0
0
0
0
0
1
1
0
0
0
0
0
0
0
0
0
0
0
0
0
0
0
0
0
0
0
0
0
0
0
0
0
0
0
0
0
0
0
0
0
0
0
0
0
0
0
0
0
0
0
0
0
0
0
0
0
0
0
0
0
0
0
0
0
1
1
0
0
0
0
0
0
0
0
0
0
0
0
0
0
0
0
0
0
0
0
0
0
0
0
0
0
0
0
0
0
0
0
0
0
0
0
0
0
0
0
0
0
0
0
0
0
0
0
0
0
0
0
0
0
0
0
0
1
1
0
0
0
0
0
0
0
0
0
0
0
0
0
0
0
0
0
0
0
0
0
0
0
0
0
0
0
0
0
0
0
0
0
0
0
0
0
0
0
0
0
0
0
0
0
0
0
0
0
0
0
0
0
0
0
0
0
1
1
0
0
0
0
0
0
0
0
0
0
0
0
0
0
0
0
0
0
0
0
0
0
0
0
0
0
0
0
0
0
0
0
0
0
0
0
0
0
0
0
0
0
0
0
0
0
0
0
0
0
0
0
0
0
0
0
0
1
1
0
0
0
0
0
0
0
0
0
0
0
0
0
0
0
0
0
0
0
0
0
0
0
0
0
0
0
0
0
0
0
0
0
0
0
0
0
0
0
0
0
0
0
0
0
0
0
0
0
0
0
0
0
0
0
0
0
1
1
0
0
0
0
0
0
0
0
0
0
0
0
0
0
0
0
0
0
0
0
0
0
0
0
0
0
0
0
0
0
0
0
0
0
0
0
0
0
0
0
0
0
0
0
0
0
0
0
0
0
0
0
0
0
0
0
0
1
1
0
0
0
0
0
0
0
0
0
0
0
0
0
0
0
0
0
0
0
0
0
1
1
0
0
0
0
0
0
0
0
0
0
0
0
0
0
0
0
0
0
0
0
0
0
0
0
0
0
0
0
0
0
0
0
0
0
1
1
0
0
0
0
0
0
0
0
0
0
0
0
0
0
0
0
0
0
0
0
1
1
0
0
0
0
0
0
0
0
0
0
0
0
0
0
0
0
0
0
0
0
0
0
0
0
0
0
0
0
0
0
0
0
0
1
1
0
0
0
0
0
0
0
0
0
0
0
0
0
0
0
0
0
0
0
0
1
1
0
0
0
0
0
0
0
0
0
0
0
0
0
0
0
0
0
0
0
0
0
0
0
0
0
0
0
0
0
0
0
0
0
1
1
0
0
0
0
0
0
0
0
0
0
0
0
0
0
0
0
0
0
0
0
1
1
0
0
0
0
0
0
0
0
0
0
0
0
0
0
0
0
0
0
0
0
0
0
0
0
0
0
0
0
0
0
0
0
0
1
1
0
0
0
0
0
0
0
0
0
0
0
0
0
0
0
0
0
0
0
0
1
1
0
0
0
0
0
0
0
0
0
0
0
0
0
0
0
0
0
0
0
0
0
0
0
0
0
0
0
0
0
0
0
0
0
1
1
0
0
0
0
0
0
0
0
0
0
0
0
0
0
0
0
0
0
0
0
1
1
0
0
0
0
0
0
0
0
0
0
0
0
0
0
0
0
0
0
0
0
0
0
0
0
0
0
0
0
0
0
0
0
0
1
1
0
0
0
0
0
0
0
0
0
0
0
0
0
0
0
0
0
0
0
0
1
1
0
0
0
0
0
0
0
0
0
0
0
0
0
0
0
0
0
0
0
0
0
0
0
0
0
0
0
0
0
0
0
0
0
1
1
0
0
0
0
0
0
0
0
0
0
0
0
0
0
0
0
0
0
0
0
1
1
0
0
0
0
0
0
0
0
0
0
0
0
0
0
0
0
0
0
0
0
0
0
0
0
0
0
0
0
0
0
0
0
0
1
1
0
0
0
0
0
0
0
0
0
0
0
0
0
0
0
0
0
0
0
0
1
1
0
0
0
0
0
0
0
0
0
0
0
0
0
0
0
0
0
0
0
0
0
0
0
0
0
0
0
0
0
0
0
0
0
1
1
0
0
0
0
0
0
0
0
0
0
0
0
0
0
0
0
0
0
0
0
1
1
0
0
0
0
0
0
0
0
0
0
0
0
0
0
0
0
0
0
0
0
0
0
0
0
0
0
0
0
0
0
0
0
0
1
1
0
0
0
0
0
0
0
0
0
0
0
0
0
0
0
0
0
0
0
0
1
1
0
0
0
0
0
0
0
0
0
0
0
0
0
0
0
0
0
0
0
0
0
0
0
0
0
0
0
0
0
0
0
0
0
1
1
0
0
0
0
0
0
0
0
0
0
0
0
0
0
0
0
0
0
0
0
1
1
0
0
0
0
0
0
0
0
0
0
0
0
0
0
0
0
0
0
0
0
0
0
0
0
0
0
0
0
0
0
0
0
0
1
1
0
0
0
0
0
0
0
0
0
0
0
0
0
0
0
0
0
0
0
0
1
1
0
0
0
0
0
0
0
0
0
0
0
0
0
0
0
0
0
0
0
0
0
0
0
0
0
0
0
0
0
0
0
0
0
1
1
0
0
0
0
0
0
0
0
0
0
0
0
0
0
0
0
0
0
0
0
1
1
0
0
0
0
0
0
0
0
0
0
0
0
0
0
0
0
0
0
0
0
0
0
0
0
0
0
0
0
0
0
0
0
0
1
1
0
0
0
0
0
0
0
0
0
0
0
0
0
0
0
0
0
0
0
0
1
1
0
0
0
0
0
0
0
0
0
0
0
0
0
0
0
0
0
0
0
0
0
0
0
0
0
0
0
0
0
0
0
0
0
1
1
0
0
0
0
0
0
0
0
0
0
0
0
0
0
0
0
0
0
0
0
1
1
0
0
0
0
0
0
0
0
0
0
0
0
0
0
0
0
0
0
0
0
0
0
0
0
0
0
0
0
0
0
0
0
0
1
1
0
0
0
0
0
0
0
0
0
0
0
0
0
0
0
0
0
0
0
0
1
1
0
0
0
0
0
0
0
0
0
0
0
0
0
0
0
0
0
0
0
0
0
0
0
0
0
0
0
0
0
0
0
0
0
1
1
0
0
0
0
0
0
0
0
0
0
0
0
0
0
0
0
0
0
0
0
1
1
0
0
0
0
0
0
0
0
0
0
0
0
0
0
0
0
0
0
0
0
0
0
0
0
0
0
0
0
0
0
0
0
0
1
1
0
0
0
0
0
0
0
0
0
0
0
0
0
0
0
0
0
0
0
0
1
1
0
0
0
0
0
0
0
0
0
0
0
0
0
0
0
0
0
0
0
0
0
0
0
0
0
0
0
0
0
0
0
0
0
1
1
0
0
0
0
0
0
0
0
0
0
0
0
0
0
0
0
0
0
0
0
1
1
0
0
0
0
0
0
0
0
0
0
0
0
0
0
0
0
0
0
0
0
0
0
0
0
0
0
0
0
0
0
0
0
0
1
1
0
0
0
0
0
0
0
0
0
0
0
0
0
0
0
0
0
0
0
0
1
1
0
0
0
0
0
0
0
0
0
0
0
0
0
0
0
0
0
0
0
0
0
0
0
0
0
0
0
0
0
0
0
0
0
1
1
0
0
0
0
0
0
0
0
0
0
0
0
0
0
0
0
0
0
0
0
1
1
0
0
0
0
0
0
0
0
0
0
0
0
0
0
0
0
0
0
0
0
0
0
0
0
0
0
0
0
0
0
0
0
0
1
1
1
1
1
1
1
1
1
1
1
1
1
1
1
1
1
1
1
1
1
1
1
1
1
1
1
1
1
1
1
1
1
1
1
1
1
1
1
1
1
1
1
1
1
1
1
1
1
1
1
1
1
1
1
1
1
1
				</DataArray>
				<DataArray type="Float64" Name="h" NumberOfComponents="1" Format="ascii">
1.1980806736
1.1981358196
1.1981080259
1.1980538280
1.1979742155
1.1978706875
1.1977452452
1.1976002800
1.1974387213
1.1972639976
1.1970799560
1.1968908754
1.1967013472
1.1965161929
1.1963403124
1.1961784980
1.1960353664
1.1959150978
1.1958212514
1.1957567613
1.1957236702
1.1957236702
1.1786490742
1.1802492655
1.1804768964
1.1809342168
1.1816088255
1.1824832685
1.1835359426
1.1847417548
1.1860740033
1.1875054190
1.1890089177
1.1905590210
1.1921322926
1.1937075953
1.1952666863
1.1967940164
1.1982766012
1.1997039852
1.2010677346
1.2023612711
1.2035795650
1.2047186561
1.2057756798
1.2067484927
1.2076353441
1.2084351233
1.2091469611
1.2097700388
1.2103039912
1.2107484741
1.2111030642
1.2113677455
1.2115424370
1.2116269448
1.2116269448
1.1981358196
1.1982030806
1.1981608604
1.1980782794
1.1979572366
1.1978005320
1.1976117997
1.1973953210
1.1971560852
1.1968996759
1.1966321126
1.1963597925
1.1960893243
1.1958274001
1.1955806100
1.1953552432
1.1951572018
1.1949917334
1.1948632497
1.1947753191
1.1947304037
1.1957236702
1.1802492655
1.1818872807
1.1821005507
1.1825297950
1.1831630813
1.1839836353
1.1849707494
1.1861004281
1.1873472598
1.1886854330
1.1900894359
1.1915354203
1.1930015837
1.1944683690
1.1959190082
1.1973392921
1.1987174162
1.2000439257
1.2013112159
1.2025133726
1.2036458709
1.2047051199
1.2056885079
1.2065940391
1.2074200309
1.2081653791
1.2088291694
1.2094105070
1.2099089326
1.2103239975
1.2106551762
1.2109023629
1.2110654020
1.2111440475
1.2116269448
1.1982563858
1.1983270711
1.1982837839
1.1981991094
1.1980750293
1.1979144600
1.1977211772
1.1974996206
1.1972549444
1.1969928959
1.1967196502
1.1964417473
1.1961659227
1.1958989794
1.1956476020
1.1954181599
1.1952166223
1.1950482921
1.1949176254
1.1948282237
1.1947825708
1.1957695579
1.1802773651
1.1819000293
1.1821129571
1.1825414479
1.1831735716
1.1839925576
1.1849777048
1.1861050287
1.1873491304
1.1886842110
1.1900847790
1.1915270200
1.1929891680
1.1944517078
1.1958979151
1.1973136263
1.1986870829
1.2000088759
1.2012714458
1.2024689223
1.2035968228
1.2046515978
1.2056306751
1.2065320970
1.2073542181
1.2080959692
1.2087564697
1.2093348568
1.2098307001
1.2102435771
1.2105729858
1.2108188391
1.2109809959
1.2110592206
1.2115464322
1.1984955064
1.1985731454
1.1985277209
1.1984388518
1.1983086844
1.1981403660
1.1979379540
1.1977062027
1.1974505948
1.1971772039
1.1968925171
1.1966033601
1.1963167250
1.1960396391
1.1957789801
1.1955412825
1.1953326550
1.1951585157
1.1950234144
1.1949310223
1.1948838697
1.1958582724
1.1803312487
1.1819237496
1.1821360151
1.1825630438
1.1831929083
1.1840088443
1.1849901621
1.1861128995
1.1873516858
1.1886807531
1.1900746592
1.1915096598
1.1929640676
1.1944184504
1.1958561691
1.1972631469
1.1986277125
1.1999405419
1.2011941586
1.2023827724
1.2035019777
1.2045483002
1.2055192392
1.2064129066
1.2072277256
1.2079626915
1.2086169860
1.2091898067
1.2096807775
1.2100895258
1.2104155948
1.2106589326
1.2108194259
1.2108968596
1.2113927045
1.1988509173
1.1989391409
1.1988905005
1.1987953186
1.1986559863
1.1984759939
1.1982598177
1.1980126808
1.1977405562
1.1974500060
1.1971479853
1.1968417515
1.1965386856
1.1962461589
1.1959713471
1.1957210420
1.1955015717
1.1953185373
1.1951766384
1.1950796586
1.1950302039
1.1959856996
1.1804069950
1.1819555272
1.1821668286
1.1825917255
1.1832182973
1.1840297930
1.1850055445
1.1861216283
1.1873527235
1.1886731177
1.1900574436
1.1914820540
1.1929253819
1.1943681183
1.1957937473
1.1971883154
1.1985402748
1.1998404206
1.2010813920
1.2022575098
1.2033644739
1.2043989128
1.2053584236
1.2062412130
1.2070457971
1.2077712595
1.2084168670
1.2089819002
1.2094660574
1.2098690346
1.2101904376
1.2104302631
1.2105884368
1.2106647714
1.2111734379
1.1993191843
1.1994217791
1.1993688340
1.1992651998
1.1991135895
1.1989179450
1.1986832948
1.1984154815
1.1981211265
1.1978074411
1.1974820053
1.1971526562
1.1968273017
1.1965137831
1.1962196882
1.1959521699
1.1957178665
1.1955226425
1.1953714146
1.1952681315
1.1952155107
1.1961457516
1.1804992455
1.1819914363
1.1822014955
1.1826236427
1.1832459735
1.1840517627
1.1850203814
1.1861279678
1.1873492770
1.1886586919
1.1900309324
1.1914424687
1.1928719055
1.1943000879
1.1957106551
1.1970898098
1.1984261567
1.1997106374
1.2009360317
1.2020967936
1.2031887494
1.2042086490
1.2051542044
1.2060237329
1.2068158598
1.2075297708
1.2081648320
1.2087204212
1.2091963232
1.2095923146
1.2099080750
1.2101436580
1.2102990347
1.2103740513
1.2108995256
1.1998956923
1.2000166580
1.1999583093
1.1998440623
1.1996770247
1.1994616940
1.1992037782
1.1989098840
1.1985874358
1.1982444515
1.1978892921
1.1975305249
1.1971767277
1.1968363468
1.1965175078
1.1962278412
1.1959744034
1.1957634183
1.1956001039
1.1954886412
1.1954319070
1.1963305154
1.1806018268
1.1820270770
1.1822356372
1.1826544664
1.1832716923
1.1840706376
1.1850307390
1.1861282296
1.1873379753
1.1886344874
1.1899926031
1.1913889348
1.1928022855
1.1942136899
1.1956069695
1.1969685074
1.1982870847
1.1995538073
1.2007616110
1.2019050958
1.2029802235
1.2039838741
1.2049138804
1.2057686747
1.2065469957
1.2072481340
1.2078715581
1.2084167458
1.2088835711
1.2092718935
1.2095814695
1.2098124112
1.2099647370
1.2100383280
1.2105843222
1.2005748196
1.2007184224
1.2006535645
1.2005265281
1.2003408848
1.2001017842
1.1998157344
1.1994902431
1.1991336854
1.1987550387
1.1983635994
1.1979688164
1.1975800857
1.1972066021
1.1968571673
1.1965400226
1.1962627697
1.1960321098
1.1958536688
1.1957319479
1.1956700469
1.1965306141
1.1807086168
1.1820583331
1.1822651445
1.1826801106
1.1832914179
1.1840824718
1.1850328152
1.1861188182
1.1873155011
1.1885975489
1.1899399557
1.1913195016
1.1927151942
1.1941082948
1.1954828324
1.1968253897
1.1981249372
1.1993727548
1.2005619393
1.2016872376
1.2027447461
1.2037314702
1.2046453566
1.2054849447
1.2062490773
1.2069371395
1.2075486915
1.2080833018
1.2085409233
1.2089214904
1.2092248296
1.2094511050
1.2096003774
1.2096725606
1.2102424465
1.2013498461
1.2015206808
1.2014482062
1.2013061993
1.2010987574
1.2008317715
1.2005126599
1.2001499592
1.1997531337
1.1993322662
1.1988977381
1.1984600312
1.1980295108
1.1976162725
1.1972299454
1.1968795336
1.1965733345
1.1963186731
1.1961217187
1.1959874097
1.1959191557
1.1967352404
1.1808142165
1.1820819265
1.1822867227
1.1826972616
1.1833018310
1.1840839726
1.1850233928
1.1860966585
1.1872790000
1.1885453216
1.1898708485
1.1912325453
1.1926095897
1.1939835327
1.1953386291
1.1966616715
1.1979418249
1.1991705418
1.2003410750
1.2014483087
1.2024884594
1.2034586409
1.2043568937
1.2051818421
1.2059324095
1.2066080508
1.2072083927
1.2077330709
1.2081820938
1.2085554498
1.2088530176
1.2090749974
1.2092214808
1.2092924067
1.2098891630
1.2022129522
1.2024159967
1.2023348063
1.2021756615
1.2019432406
1.2016442543
1.2012871303
1.2008815489
1.2004381898
1.1999683766
1.1994837182
1.1989958759
1.1985163366
1.1980562544
1.1976262507
1.1972362642
1.1968954668
1.1966119873
1.1963927141
1.1962431787
1.1961672211
1.1969323588
1.1809146308
1.1820959921
1.1822984536
1.1827039159
1.1833008344
1.1840729684
1.1850002724
1.1860595916
1.1872264339
1.1884759780
1.1897837674
1.1911269497
1.1924848692
1.1938394039
1.1951750492
1.1964788086
1.1977400350
1.1989503465
1.2001031376
1.2011934091
1.2022174711
1.2031725162
1.2040566446
1.2048685293
1.2056071371
1.2062719523
1.2068626289
1.2073788313
1.2078205858
1.2081879006
1.2084806773
1.2086991265
1.2088433510
1.2089133021
1.2095394720
1.2031554065
1.2033960650
1.2033050797
1.2031266671
1.2028661334
1.2025310756
1.2021310154
1.2016768756
1.2011806627
1.2006550622
1.2001130403
1.1995675762
1.1990314268
1.1985169657
1.1980359819
1.1975995408
1.1972178985
1.1969002102
1.1966543092
1.1964865307
1.1964013137
1.1971090346
1.1810080492
1.1821007521
1.1823004515
1.1827000038
1.1832881358
1.1840489459
1.1849627576
1.1860068033
1.1871569591
1.1883887526
1.1896780763
1.1910023172
1.1923410601
1.1936764155
1.1949931533
1.1962784837
1.1975219432
1.1987152990
1.1998520647
1.2009273267
1.2019374520
1.2028796696
1.2037520935
1.2045533960
1.2052825354
1.2059389720
1.2065223331
1.2070322586
1.2074687414
1.2078317624
1.2081212048
1.2083372537
1.2084799957
1.2085493763
1.2092070399
1.2041675586
1.2044516945
1.2043498702
1.2041501273
1.2038584362
1.2034833337
1.2030355028
1.2025271894
1.2019718180
1.2013835381
1.2007767855
1.2001659813
1.1995652910
1.1989884664
1.1984486450
1.1979582299
1.1975288052
1.1971708262
1.1968933635
1.1967038432
1.1966075444
1.1972514007
1.1810952161
1.1820987995
1.1822951254
1.1826876180
1.1832654393
1.1840132084
1.1849117893
1.1859389457
1.1870710344
1.1882840069
1.1895541389
1.1908591977
1.1921789836
1.1934956928
1.1947944601
1.1960626904
1.1972900832
1.1984685322
1.1995916374
1.2006545323
1.2016535958
1.2025860418
1.2034499402
1.2042439019
1.2049668126
1.2056180422
1.2061971244
1.2067036087
1.2071373904
1.2074983636
1.2077863408
1.2080014363
1.2081436858
1.2082130056
1.2089037675
1.2052388703
1.2055728099
1.2054591556
1.2052361235
1.2049103737
1.2044914197
1.2039911545
1.2034232045
1.2028024799
1.2021446712
1.2014657717
1.2007817464
1.2001082904
1.1994606793
1.1988535795
1.1983009562
1.1978159998
1.1974107992
1.1970960432
1.1968806458
1.1967710817
1.1973446951
1.1811797641
1.1820953772
1.1822874240
1.1826712051
1.1832365796
1.1839689618
1.1848499974
1.1858581729
1.1869704586
1.1881633156
1.1894134496
1.1906990582
1.1920001126
1.1932989276
1.1945809301
1.1958337158
1.1970471233
1.1982131378
1.1993254099
1.2003790783
1.2013704836
1.2022967661
1.2031558860
1.2039463216
1.2046668126
1.2053165615
1.2058949308
1.2064013032
1.2068354010
1.2071969624
1.2074856667
1.2077015045
1.2078444190
1.2079142695
1.2086392539
1.2063581051
1.2067486045
1.2066222014
1.2063740632
1.2060115531
1.2055451815
1.2049880778
1.2043552819
1.2036632282
1.2029291950
1.2021707904
1.2014055943
1.2006509217
1.1999236931
1.1992402686
1.1986164030
1.1980672015
1.1976067867
1.1972479599
1.1970016795
1.1968761539
1.1973732747
1.1812686729
1.1820987950
1.1822851934
1.1826578388
1.1832077140
1.1839214402
1.1847817811
1.1857681864
1.1868583923
1.1880294503
1.1892585302
1.1905242075
1.1918066776
1.1930884700
1.1943550245
1.1955941753
1.1967958645
1.1979521342
1.1990566467
1.2001045027
1.2010919526
1.2020160005
1.2028744256
1.2036654973
1.2043877280
1.2050400689
1.2056216264
1.2061315313
1.2065692507
1.2069342890
1.2072261240
1.2074445622
1.2075894084
1.2076604331
1.2084202892
1.2075134091
1.2079675816
1.2078276040
1.2075527265
1.2071510166
1.2066339833
1.2060159965
1.2053135129
1.2045444984
1.2037278310
1.2028827514
1.2020284815
1.2011840014
1.2003679542
1.1995985239
1.1988934652
1.1982701203
1.1977451152
1.1973340018
1.1970505741
1.1969056137
1.1973201901
1.1813723669
1.1821205091
1.1822991530
1.1826570610
1.1831870453
1.1838775540
1.1847129247
1.1856738594
1.1867390125
1.1878860807
1.1890926838
1.1903377006
1.1916017146
1.1928672950
1.1941196579
1.1953469714
1.1965392300
1.1976884833
1.1987883637
1.1998338893
1.2008211672
1.2017470033
1.2026089248
1.2034049130
1.2041331690
1.2047923046
1.2053810812
1.2058982894
1.2063430535
1.2067145634
1.2070120212
1.2072349870
1.2073830769
1.2074559392
1.2082508499
1.2086923632
1.2092175436
1.2090632814
1.2087602620
1.2083172453
1.2077467221
1.2070642822
1.2062877738
1.2054366661
1.2045314085
1.2035928421
1.2026418013
1.2016989136
1.2007845546
1.1999187973
1.1991215493
1.1984126928
1.1978118811
1.1973382293
1.1970094947
1.1968403794
1.1971666447
1.1815050156
1.1821754363
1.1823430135
1.1826807658
1.1831845210
1.1838454791
1.1846501496
1.1855808039
1.1866171336
1.1877374783
1.1889198458
1.1901433369
1.1913887274
1.1926385251
1.1938779736
1.1950951807
1.1962802030
1.1974250616
1.1985233195
1.1995698700
1.2005606297
1.2014921494
1.2023616371
1.2031667097
1.2039051739
1.2045752149
1.2051751601
1.2057033714
1.2061585436
1.2065394699
1.2068450033
1.2070743929
1.2072270166
1.2073023655
1.2081320536
1.2098821365
1.2104856815
1.2103165616
1.2099842720
1.2094982408
1.2088719068
1.2081220359
1.2072678127
1.2063301470
1.2053309854
1.2042926808
1.2032375832
1.2021878663
1.2011655531
1.2001925551
1.1992909635
1.1984834178
1.1977931238
1.1972437442
1.1968585964
1.1966584998
1.1968910552
1.1816853075
1.1822827419
1.1824338782
1.1827432026
1.1832115606
1.1838342505
1.1846006810
1.1854949722
1.1864978626
1.1875882070
1.1887442208
1.1899450357
1.1911713916
1.1924058320
1.1936335064
1.1948421139
1.1960218628
1.1971646916
1.1982640495
1.1993146666
1.2003122287
1.2012529849
1.2021337648
1.2029517511
1.2037042783
1.2043890226
1.2050037935
1.2055464402
1.2060151452
1.2064082273
1.2067241193
1.2069616983
1.2071200554
1.2071984912
1.2080622278
1.2110696479
1.2117586695
1.2115742771
1.2112119088
1.2106816261
1.2099977654
1.2091782043
1.2082433820
1.2072155502
1.2061180327
1.2049745496
1.2038087890
1.2026442719
1.2015044448
1.2004128164
1.1993934854
1.1984718579
1.1976750827
1.1970324523
1.1965750254
1.1963333406
1.1964672251
1.1819374754
1.1824668903
1.1825924958
1.1828605158
1.1832801713
1.1838527212
1.1845712256
1.1854217434
1.1863858298
1.1874425133
1.1885698748
1.1897467807
1.1909536901
1.1921730826
1.1933897797
1.1945910984
1.1957672535
1.1969100666
1.1980128371
1.1990701043
1.2000772959
1.2010303230
1.2019255897
1.2027597853
1.2035297042
1.2042324413
1.2048652135
1.2054252824
1.2059102445
1.2063178736
1.2066461188
1.2068934298
1.2070585668
1.2071406094
1.2080372193
1.2122416466
1.2130226626
1.2128227646
1.2124298770
1.2118546511
1.2111122576
1.2102216045
1.2092042806
1.2080837507
1.2068845624
1.2056315968
1.2043496285
1.2030632069
1.2017967727
1.2005749399
1.1994233048
1.1983696284
1.1974449792
1.1966851614
1.1961317261
1.1958306874
1.1958614180
1.1822936089
1.1827599883
1.1828438993
1.1830501369
1.1834017504
1.1839082488
1.1845667921
1.1853649657
1.1862844519
1.1873037680
1.1884002934
1.1895522022
1.1907393680
1.1919438884
1.1931501880
1.1943453791
1.1955193051
1.1966636984
1.1977716924
1.1988376241
1.1998566486
1.2008243168
1.2017365745
1.2025895733
1.2033795154
1.2041028556
1.2047561574
1.2053360326
1.2058394308
1.2062635229
1.2066057208
1.2068640004
1.2070367544
1.2071228152
1.2080506794
1.2133848436
1.2142633665
1.2140479308
1.2136244911
1.2130042385
1.2122031064
1.2112409410
1.2101403627
1.2089259094
1.2076231665
1.2062579361
1.2048557560
1.2034417322
1.2020406694
1.2006774744
1.1993782207
1.1981718847
1.1970924359
1.1961821586
1.1954958028
1.1951034240
1.1950269240
1.1827984532
1.1832065818
1.1832184453
1.1833296756
1.1835852642
1.1840049639
1.1845893500
1.1853260333
1.1861953437
1.1871741074
1.1882381585
1.1893644087
1.1905317700
1.1917216704
1.1929182369
1.1941082287
1.1952808856
1.1964279674
1.1975424205
1.1986183744
1.1996507095
1.2006346097
1.2015655466
1.2024391092
1.2032508718
1.2039966090
1.2046721866
1.2052735216
1.2057968723
1.2062387640
1.2065960319
1.2068661436
1.2070470961
1.2071374552
1.2080945167
1.2144861909
1.2154662680
1.2152354815
1.2147819026
1.2141172082
1.2132580193
1.2122250270
1.2110417687
1.2097337063
1.2083272820
1.2068489609
1.2053246519
1.2037794611
1.2022377472
1.2007235331
1.1992616880
1.1978800316
1.1966125398
1.1955053374
1.1946268699
1.1940815063
1.1938938120
1.1835186163
1.1838728184
1.1837523357
1.1837137866
1.1838335062
1.1841406669
1.1846356193
1.1853024273
1.1861173799
1.1870538201
1.1880849347
1.1891857283
1.1903337954
1.1915097132
1.1926971850
1.1938824877
1.1950545468
1.1962049591
1.1973265098
1.1984131421
1.1994594802
1.2004603526
1.2014107628
1.2023057294
1.2031401849
1.2039092018
1.2046079254
1.2052315528
1.2057756258
1.2062359998
1.2066089098
1.2068912943
1.2070807382
1.2071755280
1.2081593024
1.2155330331
1.2166167487
1.2163710350
1.2158882095
1.2151803804
1.2142647834
1.2131628695
1.2118989814
1.2104993826
1.2089912160
1.2074013653
1.2057557521
1.2040789181
1.2023938813
1.2007223402
1.1990854860
1.1975060742
1.1960117793
1.1946440777
1.1934770570
1.1926523880
1.1923489911
1.1845616385
1.1848653711
1.1844861840
1.1842071128
1.1841365751
1.1843024042
1.1846945360
1.1852864443
1.1860461376
1.1869411365
1.1879407897
1.1890176328
1.1901477069
1.1913106663
1.1924896978
1.1936707326
1.1948425425
1.1959964399
1.1971251081
1.1982223477
1.1992825640
1.2003002643
1.2012700055
1.2021862507
1.2030432934
1.2038355070
1.2045573139
1.2052031900
1.2057679573
1.2062467960
1.2066353358
1.2069299811
1.2071278999
1.2072270955
1.2082346853
1.2165132520
1.2177002482
1.2174402805
1.2169296027
1.2161807003
1.2152113555
1.2140436962
1.2127027834
1.2112155911
1.2096098597
1.2079127079
1.2061497179
1.2043444657
1.2025180928
1.2006887568
1.1988714471
1.1970779057
1.1953180080
1.1936085928
1.1919965093
1.1906198925
1.1901941043
1.1861165229
1.1863715684
1.1854559493
1.1847883549
1.1844605549
1.1844604771
1.1847447918
1.1852645828
1.1859740658
1.1868326291
1.1878049865
1.1888610450
1.1899753689
1.1911268337
1.1922982141
1.1934753288
1.1946468821
1.1958039103
1.1969390943
1.1980461468
1.1991193098
1.2001528158
1.2011408172
1.2020772498
1.2029557955
1.2037701496
1.2045140370
1.2051812317
1.2057658557
1.2062624310
1.2066659942
1.2069724278
1.2071784904
1.2072819074
1.2083100295
1.2174156348
1.2187026915
1.2184294048
1.2178927877
1.2171056480
1.2160862430
1.2148573034
1.2134445335
1.2118755675
1.2101786251
1.2083807212
1.2065072871
1.2045816689
1.2026231573
1.2006454793
1.1986545888
1.1966451433
1.1945951094
1.1924579601
1.1901568710
1.1876139131
1.1870527400
1.1885408970
1.1887456393
1.1866578921
1.1853736777
1.1847275110
1.1845604714
1.1847528649
1.1852178797
1.1858913843
1.1867240142
1.1876764194
1.1887166288
1.1898183665
1.1909602067
1.1921248374
1.1932982251
1.1944691045
1.1956284208
1.1967689224
1.1978843058
1.1989687143
1.2000161697
1.2010204719
1.2019750788
1.2028731012
1.2037076054
1.2044716604
1.2051583861
1.2057612448
1.2062741375
1.2066915408
1.2070088419
1.2072224118
1.2073297117
1.2083747360
1.2182300342
1.2196107481
1.2193253482
1.2187652316
1.2179434685
1.2168787184
1.2155942353
1.2141163005
1.2124730642
1.2106929043
1.2088035061
1.2068312917
1.2047993042
1.2027257482
1.2006216996
1.1984865142
1.1962974576
1.1939856137
1.1913758264
1.1880372362
1.1828969997
1.1821757318
1.1925517047
1.1926973546
1.1879362043
1.1857368160
1.1847844528
1.1845169239
1.1846752243
1.1851256758
1.1857891908
1.1866122411
1.1875548764
1.1885854923
1.1896783559
1.1908125860
1.1919713018
1.1931408455
1.1943101990
1.1954705130
1.1966145884
1.1977361891
1.1988294390
1.1998882211
1.2009060534
1.2018759739
1.2027905850
1.2036423853
1.2044238587
1.2051275320
1.2057462754
1.2062734249
1.2067029475
1.2070297786
1.2072499349
1.2073606361
1.2084186385
1.2189474345
1.2204120689
1.2201160361
1.2195353809
1.2186833732
1.2175789925
1.2162459268
1.2147109030
1.2130023893
1.2111496411
1.2091817263
1.2071257049
1.2050060158
1.2028434007
1.2006544166
1.1984512867
1.1962428239
1.1940404049
1.1918782419
1.1898788851
1.1884836296
1.1912324436
1.1835612186
1.1765045949
1.1800352940
1.1846391931
1.1845785509
1.1842497724
1.1840727618
1.1841412065
1.1844506570
1.1849701555
1.1856640673
1.1864983667
1.1874425567
1.1884699006
1.1895573444
1.1906856305
1.1918388777
1.1930040867
1.1941707390
1.1953303041
1.1964757148
1.1976008761
1.1986999634
1.1997668008
1.2007947020
1.2017763584
1.2027039342
1.2035694395
1.2043648563
1.2050822086
1.2057138531
1.2062526403
1.2066920929
1.2070267521
1.2072523256
1.2073658224
1.2084326552
1.2195602212
1.2210957651
1.2207908492
1.2201931190
1.2193159765
1.2181786280
1.2168050784
1.2152223265
1.2134593985
1.2115467666
1.2095140394
1.2073892967
1.2051985081
1.2029646517
1.2007079220
1.1984465571
1.1961987195
1.1939882435
1.1918572567
1.1898937856
1.1883101691
1.1879925126
1.1840074214
1.1770185905
1.1796693302
1.1823467330
1.1830217140
1.1832821635
1.1834854783
1.1837809356
1.1842205107
1.1848121206
1.1855440056
1.1863962817
1.1873468798
1.1883740690
1.1894578215
1.1905808053
1.1917283556
1.1928882655
1.1940506228
1.1952072783
1.1963513741
1.1974770016
1.1985784478
1.1996495528
1.2006835108
1.2016727535
1.2026090827
1.2034841088
1.2042894111
1.2050166125
1.2056576614
1.2062050098
1.2066518193
1.2069923065
1.2072219245
1.2073375099
1.2084088878
1.2200621889
1.2216526498
1.2213408548
1.2207299750
1.2198334731
1.2186706816
1.2172657626
1.2156459873
1.2138411564
1.2118821761
1.2097992986
1.2076215451
1.2053761809
1.2030878826
1.2007791946
1.1984714522
1.1961861069
1.1939484703
1.1917935194
1.1897738705
1.1879752910
1.1865653652
1.1838147799
1.1803464813
1.1808354082
1.1818898352
1.1823984743
1.1827567873
1.1831022124
1.1835168849
1.1840405642
1.1846859560
1.1854492890
1.1863177150
1.1872745101
1.1883016567
1.1893816317
1.1904988251
1.1916397153
1.1927928656
1.1939489505
1.1951002140
1.1962400461
1.1973627444
1.1984627472
1.1995339729
1.2005695860
1.2015618492
1.2025022990
1.2033822366
1.2041929419
1.2049257560
1.2055723318
1.2061248300
1.2065761400
1.2069202345
1.2071523744
1.2072692672
1.2083408630
1.2204484480
1.2220754054
1.2217589573
1.2211392474
1.2202297317
1.2190497307
1.2176234911
1.2159786174
1.2141451204
1.2121542145
1.2100366287
1.2078220667
1.2055387233
1.2032124068
1.2008670871
1.1985257198
1.1962110036
1.1939478937
1.1917663114
1.1897023863
1.1877971829
1.1860713919
1.1839569816
1.1818715478
1.1815807068
1.1818752402
1.1821734291
1.1825041586
1.1828898729
1.1833584975
1.1839284945
1.1846069245
1.1853906388
1.1862693521
1.1872291360
1.1882542883
1.1893290328
1.1904390593
1.1915717565
1.1927163254
1.1938639225
1.1950071569
1.1961396600
1.1972559269
1.1983505631
1.1994176140
1.2004502888
1.2014407895
1.2023804956
1.2032605043
1.2040719045
1.2048058683
1.2054538812
1.2060079247
1.2064607167
1.2068060716
1.2070391255
1.2071565033
1.2082240415
1.2207154636
1.2223588318
1.2220401268
1.2214162026
1.2205004097
1.2193120229
1.2178753096
1.2162177970
1.2143694714
1.2123616525
1.2102252790
1.2079904065
1.2056857328
1.2033376874
1.2009709996
1.1986094559
1.1962763148
1.1939962797
1.1917970657
1.1897089882
1.1877618634
1.1859653809
1.1841613137
1.1826176423
1.1820448621
1.1819913947
1.1821404296
1.1824217853
1.1828076775
1.1832945260
1.1838846313
1.1845784642
1.1853711928
1.1862529898
1.1872111416
1.1882311906
1.1892984082
1.1903993226
1.1915219343
1.1926558858
1.1937927195
1.1949253030
1.1960474660
1.1971538698
1.1982392863
1.1992979114
1.2003230699
1.2013070021
1.2022410541
1.2031162460
1.2039235915
1.2046542059
1.2052995195
1.2058514616
1.2063026810
1.2066469208
1.2068792628
1.2069962968
1.2080556501
1.2208610260
1.2225000029
1.2221815483
1.2215582185
1.2206432277
1.2194556535
1.2180195011
1.2163620272
1.2145129754
1.2125034989
1.2103644489
1.2081258868
1.2058165841
1.2034630815
1.2010903152
1.1987223386
1.1963825971
1.1940957005
1.1918886421
1.1897901704
1.1878287033
1.1860220285
1.1843410493
1.1829836726
1.1823152133
1.1821225845
1.1821959111
1.1824436731
1.1828201011
1.1833078214
1.1839010602
1.1845965001
1.1853880005
1.1862656439
1.1872171397
1.1882285596
1.1892856604
1.1903753795
1.1914860304
1.1926074884
1.1937314778
1.1948510050