<VTKFile type="UnstructuredGrid" version="0.1">
	<UnstructuredGrid>
		<Piece NumberOfPoints="13548" NumberOfCells="3387">
			<CellData>
				<DataArray type="Int32" Name="ghost" NumberOfComponents="1" Format="ascii">
1
1
1
1
1
1
1
1
1
1
1
1
1
1
1
1
1
1
1
1
1
1
1
1
1
1
1
1
1
1
1
1
1
1
1
1
1
1
1
1
1
1
1
1
1
1
1
1
1
1
1
1
1
1
1
1
1
1
0
0
0
0
0
0
0
0
0
0
0
0
0
0
0
0
0
0
0
0
1
1
0
0
0
0
0
0
0
0
0
0
0
0
0
0
0
0
0
0
0
0
0
0
0
0
0
0
0
0
0
0
0
0
0
1
1
0
0
0
0
0
0
0
0
0
0
0
0
0
0
0
0
0
0
0
0
1
1
0
0
0
0
0
0
0
0
0
0
0
0
0
0
0
0
0
0
0
0
0
0
0
0
0
0
0
0
0
0
0
0
0
1
1
0
0
0
0
0
0
0
0
0
0
0
0
0
0
0
0
0
0
0
0
1
1
0
0
0
0
0
0
0
0
0
0
0
0
0
0
0
0
0
0
0
0
0
0
0
0
0
0
0
0
0
0
0
0
0
1
1
0
0
0
0
0
0
0
0
0
0
0
0
0
0
0
0
0
0
0
0
1
1
0
0
0
0
0
0
0
0
0
0
0
0
0
0
0
0
0
0
0
0
0
0
0
0
0
0
0
0
0
0
0
0
0
1
1
0
0
0
0
0
0
0
0
0
0
0
0
0
0
0
0
0
0
0
0
1
1
0
0
0
0
0
0
0
0
0
0
0
0
0
0
0
0
0
0
0
0
0
0
0
0
0
0
0
0
0
0
0
0
0
1
1
0
0
0
0
0
0
0
0
0
0
0
0
0
0
0
0
0
0
0
0
1
1
0
0
0
0
0
0
0
0
0
0
0
0
0
0
0
0
0
0
0
0
0
0
0
0
0
0
0
0
0
0
0
0
0
1
1
0
0
0
0
0
0
0
0
0
0
0
0
0
0
0
0
0
0
0
0
1
1
0
0
0
0
0
0
0
0
0
0
0
0
0
0
0
0
0
0
0
0
0
0
0
0
0
0
0
0
0
0
0
0
0
1
1
0
0
0
0
0
0
0
0
0
0
0
0
0
0
0
0
0
0
0
0
1
1
0
0
0
0
0
0
0
0
0
0
0
0
0
0
0
0
0
0
0
0
0
0
0
0
0
0
0
0
0
0
0
0
0
1
1
0
0
0
0
0
0
0
0
0
0
0
0
0
0
0
0
0
0
0
0
1
1
0
0
0
0
0
0
0
0
0
0
0
0
0
0
0
0
0
0
0
0
0
0
0
0
0
0
0
0
0
0
0
0
0
1
1
0
0
0
0
0
0
0
0
0
0
0
0
0
0
0
0
0
0
0
0
1
1
0
0
0
0
0
0
0
0
0
0
0
0
0
0
0
0
0
0
0
0
0
0
0
0
0
0
0
0
0
0
0
0
0
1
1
0
0
0
0
0
0
0
0
0
0
0
0
0
0
0
0
0
0
0
0
1
1
0
0
0
0
0
0
0
0
0
0
0
0
0
0
0
0
0
0
0
0
0
0
0
0
0
0
0
0
0
0
0
0
0
1
1
0
0
0
0
0
0
0
0
0
0
0
0
0
0
0
0
0
0
0
0
1
1
0
0
0
0
0
0
0
0
0
0
0
0
0
0
0
0
0
0
0
0
0
0
0
0
0
0
0
0
0
0
0
0
0
1
1
0
0
0
0
0
0
0
0
0
0
0
0
0
0
0
0
0
0
0
0
1
1
0
0
0
0
0
0
0
0
0
0
0
0
0
0
0
0
0
0
0
0
0
0
0
0
0
0
0
0
0
0
0
0
0
1
1
0
0
0
0
0
0
0
0
0
0
0
0
0
0
0
0
0
0
0
0
1
1
0
0
0
0
0
0
0
0
0
0
0
0
0
0
0
0
0
0
0
0
0
0
0
0
0
0
0
0
0
0
0
0
0
1
1
0
0
0
0
0
0
0
0
0
0
0
0
0
0
0
0
0
0
0
0
1
1
0
0
0
0
0
0
0
0
0
0
0
0
0
0
0
0
0
0
0
0
0
0
0
0
0
0
0
0
0
0
0
0
0
1
1
0
0
0
0
0
0
0
0
0
0
0
0
0
0
0
0
0
0
0
0
1
1
0
0
0
0
0
0
0
0
0
0
0
0
0
0
0
0
0
0
0
0
0
0
0
0
0
0
0
0
0
0
0
0
0
1
1
0
0
0
0
0
0
0
0
0
0
0
0
0
0
0
0
0
0
0
0
1
1
0
0
0
0
0
0
0
0
0
0
0
0
0
0
0
0
0
0
0
0
0
0
0
0
0
0
0
0
0
0
0
0
0
1
1
0
0
0
0
0
0
0
0
0
0
0
0
0
0
0
0
0
0
0
0
1
1
0
0
0
0
0
0
0
0
0
0
0
0
0
0
0
0
0
0
0
0
0
0
0
0
0
0
0
0
0
0
0
0
0
1
1
0
0
0
0
0
0
0
0
0
0
0
0
0
0
0
0
0
0
0
0
1
1
0
0
0
0
0
0
0
0
0
0
0
0
0
0
0
0
0
0
0
0
0
0
0
0
0
0
0
0
0
0
0
0
0
1
1
0
0
0
0
0
0
0
0
0
0
0
0
0
0
0
0
0
0
0
0
1
1
0
0
0
0
0
0
0
0
0
0
0
0
0
0
0
0
0
0
0
0
0
0
0
0
0
0
0
0
0
0
0
0
0
1
1
0
0
0
0
0
0
0
0
0
0
0
0
0
0
0
0
0
0
0
0
1
1
0
0
0
0
0
0
0
0
0
0
0
0
0
0
0
0
0
0
0
0
0
0
0
0
0
0
0
0
0
0
0
0
0
1
1
0
0
0
0
0
0
0
0
0
0
0
0
0
0
0
0
0
0
0
0
1
1
0
0
0
0
0
0
0
0
0
0
0
0
0
0
0
0
0
0
0
0
0
0
0
0
0
0
0
0
0
0
0
0
0
1
1
0
0
0
0
0
0
0
0
0
0
0
0
0
0
0
0
0
0
0
0
1
1
0
0
0
0
0
0
0
0
0
0
0
0
0
0
0
0
0
0
0
0
0
0
0
0
0
0
0
0
0
0
0
0
0
1
1
0
0
0
0
0
0
0
0
0
0
0
0
0
0
0
0
0
0
0
0
1
1
0
0
0
0
0
0
0
0
0
0
0
0
0
0
0
0
0
0
0
0
0
0
0
0
0
0
0
0
0
0
0
0
0
1
1
0
0
0
0
0
0
0
0
0
0
0
0
0
0
0
0
0
0
0
0
0
1
1
0
0
0
0
0
0
0
0
0
0
0
0
0
0
0
0
0
0
0
0
0
0
0
0
0
0
0
0
0
0
0
0
0
0
1
1
0
0
0
0
0
0
0
0
0
0
0
0
0
0
0
0
0
0
0
0
0
0
0
0
0
0
0
0
0
0
0
0
0
0
0
0
0
0
0
0
0
0
0
0
0
0
0
0
0
0
0
0
0
0
0
0
0
1
1
0
0
0
0
0
0
0
0
0
0
0
0
0
0
0
0
0
0
0
0
0
0
0
0
0
0
0
0
0
0
0
0
0
0
0
0
0
0
0
0
0
0
0
0
0
0
0
0
0
0
0
0
0
0
0
0
0
1
1
0
0
0
0
0
0
0
0
0
0
0
0
0
0
0
0
0
0
0
0
0
0
0
0
0
0
0
0
0
0
0
0
0
0
0
0
0
0
0
0
0
0
0
0
0
0
0
0
0
0
0
0
0
0
0
0
0
1
1
0
0
0
0
0
0
0
0
0
0
0
0
0
0
0
0
0
0
0
0
0
0
0
0
0
0
0
0
0
0
0
0
0
0
0
0
0
0
0
0
0
0
0
0
0
0
0
0
0
0
0
0
0
0
0
0
0
1
1
0
0
0
0
0
0
0
0
0
0
0
0
0
0
0
0
0
0
0
0
0
0
0
0
0
0
0
0
0
0
0
0
0
0
0
0
0
0
0
0
0
0
0
0
0
0
0
0
0
0
0
0
0
0
0
0
0
1
1
0
0
0
0
0
0
0
0
0
0
0
0
0
0
0
0
0
0
0
0
0
0
0
0
0
0
0
0
0
0
0
0
0
0
0
0
0
0
0
0
0
0
0
0
0
0
0
0
0
0
0
0
0
0
0
0
0
1
1
0
0
0
0
0
0
0
0
0
0
0
0
0
0
0
0
0
0
0
0
0
0
0
0
0
0
0
0
0
0
0
0
0
0
0
0
0
0
0
0
0
0
0
0
0
0
0
0
0
0
0
0
0
0
0
0
0
1
1
0
0
0
0
0
0
0
0
0
0
0
0
0
0
0
0
0
0
0
0
0
0
0
0
0
0
0
0
0
0
0
0
0
0
0
0
0
0
0
0
0
0
0
0
0
0
0
0
0
0
0
0
0
0
0
0
0
1
1
0
0
0
0
0
0
0
0
0
0
0
0
0
0
0
0
0
0
0
0
0
0
0
0
0
0
0
0
0
0
0
0
0
0
0
0
0
0
0
0
0
0
0
0
0
0
0
0
0
0
0
0
0
0
0
0
0
1
1
0
0
0
0
0
0
0
0
0
0
0
0
0
0
0
0
0
0
0
0
0
0
0
0
0
0
0
0
0
0
0
0
0
0
0
0
0
0
0
0
0
0
0
0
0
0
0
0
0
0
0
0
0
0
0
0
0
1
1
0
0
0
0
0
0
0
0
0
0
0
0
0
0
0
0
0
0
0
0
0
1
1
0
0
0
0
0
0
0
0
0
0
0
0
0
0
0
0
0
0
0
0
0
0
0
0
0
0
0
0
0
0
0
0
0
0
1
1
0
0
0
0
0
0
0
0
0
0
0
0
0
0
0
0
0
0
0
0
1
1
0
0
0
0
0
0
0
0
0
0
0
0
0
0
0
0
0
0
0
0
0
0
0
0
0
0
0
0
0
0
0
0
0
1
1
0
0
0
0
0
0
0
0
0
0
0
0
0
0
0
0
0
0
0
0
1
1
0
0
0
0
0
0
0
0
0
0
0
0
0
0
0
0
0
0
0
0
0
0
0
0
0
0
0
0
0
0
0
0
0
1
1
0
0
0
0
0
0
0
0
0
0
0
0
0
0
0
0
0
0
0
0
1
1
0
0
0
0
0
0
0
0
0
0
0
0
0
0
0
0
0
0
0
0
0
0
0
0
0
0
0
0
0
0
0
0
0
1
1
0
0
0
0
0
0
0
0
0
0
0
0
0
0
0
0
0
0
0
0
1
1
0
0
0
0
0
0
0
0
0
0
0
0
0
0
0
0
0
0
0
0
0
0
0
0
0
0
0
0
0
0
0
0
0
1
1
0
0
0
0
0
0
0
0
0
0
0
0
0
0
0
0
0
0
0
0
1
1
0
0
0
0
0
0
0
0
0
0
0
0
0
0
0
0
0
0
0
0
0
0
0
0
0
0
0
0
0
0
0
0
0
1
1
0
0
0
0
0
0
0
0
0
0
0
0
0
0
0
0
0
0
0
0
1
1
0
0
0
0
0
0
0
0
0
0
0
0
0
0
0
0
0
0
0
0
0
0
0
0
0
0
0
0
0
0
0
0
0
1
1
0
0
0
0
0
0
0
0
0
0
0
0
0
0
0
0
0
0
0
0
1
1
0
0
0
0
0
0
0
0
0
0
0
0
0
0
0
0
0
0
0
0
0
0
0
0
0
0
0
0
0
0
0
0
0
1
1
0
0
0
0
0
0
0
0
0
0
0
0
0
0
0
0
0
0
0
0
1
1
0
0
0
0
0
0
0
0
0
0
0
0
0
0
0
0
0
0
0
0
0
0
0
0
0
0
0
0
0
0
0
0
0
1
1
0
0
0
0
0
0
0
0
0
0
0
0
0
0
0
0
0
0
0
0
1
1
0
0
0
0
0
0
0
0
0
0
0
0
0
0
0
0
0
0
0
0
0
0
0
0
0
0
0
0
0
0
0
0
0
1
1
0
0
0
0
0
0
0
0
0
0
0
0
0
0
0
0
0
0
0
0
1
1
0
0
0
0
0
0
0
0
0
0
0
0
0
0
0
0
0
0
0
0
0
0
0
0
0
0
0
0
0
0
0
0
0
1
1
0
0
0
0
0
0
0
0
0
0
0
0
0
0
0
0
0
0
0
0
1
1
0
0
0
0
0
0
0
0
0
0
0
0
0
0
0
0
0
0
0
0
0
0
0
0
0
0
0
0
0
0
0
0
0
1
1
0
0
0
0
0
0
0
0
0
0
0
0
0
0
0
0
0
0
0
0
1
1
0
0
0
0
0
0
0
0
0
0
0
0
0
0
0
0
0
0
0
0
0
0
0
0
0
0
0
0
0
0
0
0
0
1
1
0
0
0
0
0
0
0
0
0
0
0
0
0
0
0
0
0
0
0
0
1
1
0
0
0
0
0
0
0
0
0
0
0
0
0
0
0
0
0
0
0
0
0
0
0
0
0
0
0
0
0
0
0
0
0
1
1
0
0
0
0
0
0
0
0
0
0
0
0
0
0
0
0
0
0
0
0
1
1
0
0
0
0
0
0
0
0
0
0
0
0
0
0
0
0
0
0
0
0
0
0
0
0
0
0
0
0
0
0
0
0
0
1
1
0
0
0
0
0
0
0
0
0
0
0
0
0
0
0
0
0
0
0
0
1
1
0
0
0
0
0
0
0
0
0
0
0
0
0
0
0
0
0
0
0
0
0
0
0
0
0
0
0
0
0
0
0
0
0
1
1
0
0
0
0
0
0
0
0
0
0
0
0
0
0
0
0
0
0
0
0
1
1
0
0
0
0
0
0
0
0
0
0
0
0
0
0
0
0
0
0
0
0
0
0
0
0
0
0
0
0
0
0
0
0
0
1
1
0
0
0
0
0
0
0
0
0
0
0
0
0
0
0
0
0
0
0
0
1
1
0
0
0
0
0
0
0
0
0
0
0
0
0
0
0
0
0
0
0
0
0
0
0
0
0
0
0
0
0
0
0
0
0
1
1
0
0
0
0
0
0
0
0
0
0
0
0
0
0
0
0
0
0
0
0
1
1
0
0
0
0
0
0
0
0
0
0
0
0
0
0
0
0
0
0
0
0
0
0
0
0
0
0
0
0
0
0
0
0
0
1
1
0
0
0
0
0
0
0
0
0
0
0
0
0
0
0
0
0
0
0
0
1
1
0
0
0
0
0
0
0
0
0
0
0
0
0
0
0
0
0
0
0
0
0
0
0
0
0
0
0
0
0
0
0
0
0
1
1
0
0
0
0
0
0
0
0
0
0
0
0
0
0
0
0
0
0
0
0
1
1
0
0
0
0
0
0
0
0
0
0
0
0
0
0
0
0
0
0
0
0
0
0
0
0
0
0
0
0
0
0
0
0
0
1
1
0
0
0
0
0
0
0
0
0
0
0
0
0
0
0
0
0
0
0
0
1
1
0
0
0
0
0
0
0
0
0
0
0
0
0
0
0
0
0
0
0
0
0
0
0
0
0
0
0
0
0
0
0
0
0
1
1
1
1
1
1
1
1
1
1
1
1
1
1
1
1
1
1
1
1
1
1
1
1
1
1
1
1
1
1
1
1
1
1
1
1
1
1
1
1
1
1
1
1
1
1
1
1
1
1
1
1
1
1
1
1
1
1
				</DataArray>
				<DataArray type="Float64" Name="h" NumberOfComponents="1" Format="ascii">
1.3702205134
1.3655838218
1.3661412926
1.3672374426
1.3688393589
1.3708982895
1.3733505173
1.3761191957
1.3791165107
1.3822465942
1.3854097926
1.3885074481
1.3914471761
1.3941486046
1.3965483621
1.3986034410
1.4002922132
1.4016126156
1.4025771235
1.4032051975
1.4035154945
1.4035154945
1.1005536257
1.1036581273
1.1034361043
1.1029818727
1.1022841433
1.1013261434
1.1000860456
1.0985378130
1.0966513036
1.0943932902
1.0917289167
1.0886229193
1.0850424021
1.0809603870
1.0763600607
1.0712411648
1.0656267680
1.0595702040
1.0531617394
1.0465309935
1.0398442042
1.0332947011
1.0270843640
1.0214004807
1.0163922812
1.0121518491
1.0087063591
1.0060222920
1.0040189840
1.0025881558
1.0016135970
1.0009873373
1.0006212466
1.0004538903
1.0004538903
1.3655838218
1.3611766117
1.3617467217
1.3628697815
1.3645151830
1.3666373228
1.3691761538
1.3720585889
1.3752001892
1.3785074712
1.3818815445
1.3852223027
1.3884331564
1.3914264854
1.3941286400
1.3964836702
1.3984551904
1.4000257237
1.4011930334
1.4019640138
1.4023481323
1.4035154945
1.1036581273
1.1065330444
1.1063305943
1.1059152568
1.1052758009
1.1043955077
1.1032525348
1.1018206828
1.1000693515
1.0979643468
1.0954690824
1.0925454278
1.0891560221
1.0852673470
1.0808534495
1.0759019369
1.0704207150
1.0644454117
1.0580474160
1.0513387330
1.0444725665
1.0376375407
1.0310421771
1.0248927818
1.0193681912
1.0145959848
1.0106385452
1.0074915313
1.0050936789
1.0033455052
1.0021306493
1.0013351406
1.0008625762
1.0006441239
1.0004538903
1.3660767837
1.3617399399
1.3622991423
1.3634010668
1.3650162668
1.3671008257
1.3695968435
1.3724337457
1.3755298586
1.3787945694
1.3821317726
1.3854438360
1.3886360690
1.3916218963
1.3943276077
1.3966959217
1.3986878529
1.4002822757
1.4014727186
1.4022619271
1.4026560460
1.4038754668
1.1020510951
1.1048805847
1.1046836570
1.1042797599
1.1036583485
1.1028037886
1.1016957879
1.1003102358
1.0986192242
1.0965918644
1.0941954372
1.0913960720
1.0881607002
1.0844595577
1.0802690560
1.0755766101
1.0703860605
1.0647237978
1.0586459420
1.0522434559
1.0456445807
1.0390127938
1.0325364664
1.0264118823
1.0208211943
1.0159083264
1.0117610584
1.0084034022
1.0057994610
1.0038683551
1.0025045623
1.0015983849
1.0010535194
1.0007995672
1.0005725866
1.3670066371
1.3628093236
1.3633471423
1.3644076490
1.3659637200
1.3679748023
1.3703872635
1.3731355021
1.3761432880
1.3793256257
1.3825918216
1.3858490093
1.3890061112
1.3919784801
1.3946921809
1.3970872517
1.3991195929
1.4007609691
1.4019966980
1.4028215073
1.4032351334
1.4045550940
1.0991421396
1.1018623673
1.1016777688
1.1012991874
1.1007172073
1.0999179840
1.0988837884
1.0975939660
1.0960250579
1.0941516168
1.0919472545
1.0893850245
1.0864387643
1.0830846724
1.0793028045
1.0750800374
1.0704133845
1.0653139870
1.0598127424
1.0539654937
1.0478579472
1.0416091848
1.0353696570
1.0293132974
1.0236223838
1.0184649787
1.0139718825
1.0102189122
1.0072194364
1.0049309456
1.0032720487
1.0021441901
1.0014533567
1.0011273904
1.0008246379
1.3683401262
1.3643468685
1.3648529105
1.3658518924
1.3673202234
1.3692224486
1.3715113692
1.3741288283
1.3770066786
1.3800681841
1.3832305195
1.3864076552
1.3895135980
1.3924662980
1.3951912993
1.3976246156
1.3997146939
1.4014230692
1.4027233352
1.4035988270
1.4040402062
1.4055040768
1.0952996427
1.0978332653
1.0976689599
1.0973316945
1.0968132799
1.0961018326
1.0951824515
1.0940383169
1.0926509160
1.0910008374
1.0890686812
1.0868350886
1.0842813864
1.0813901560
1.0781452538
1.0745327755
1.0705421134
1.0661675509
1.0614118979
1.0562911448
1.0508411085
1.0451259591
1.0392448836
1.0333351211
1.0275672363
1.0221283278
1.0171967982
1.0129143987
1.0093639006
1.0065621149
1.0044691332
1.0030091895
1.0020968259
1.0016607020
1.0012388982
1.3700293878
1.3662979102
1.3667620483
1.3676799272
1.3690327358
1.3707918879
1.3729187983
1.3753651968
1.3780735601
1.3809778787
1.3840054011
1.3870786991
1.3901180190
1.3930443115
1.3957821605
1.3982622568
1.4004235258
1.4022146414
1.4035946004
1.4045326456
1.4050082628
1.4066522097
1.0909625530
1.0932291748
1.0930936055
1.0928143873
1.0923842375
1.0917927765
1.0910273509
1.0900742817
1.0889191978
1.0875477979
1.0859466337
1.0841028129
1.0820040205
1.0796382382
1.0769925280
1.0740523104
1.0708005034
1.0672169276
1.0632798025
1.0589691128
1.0542734156
1.0492011354
1.0437937077
1.0381386657
1.0323771638
1.0266978882
1.0213160398
1.0164398613
1.0122337504
1.0087935434
1.0061419041
1.0042434137
1.0030331226
1.0024472244
1.0018574472
1.3720122554
1.3685916191
1.3690043545
1.3698227747
1.3710340781
1.3726182792
1.3745475108
1.3767857026
1.3792883007
1.3820022192
1.3848666531
1.3878141736
1.3907720713
1.3936644346
1.3964143418
1.3989459799
1.4011870570
1.4030713642
1.4045411951
1.4055497908
1.4060640156
1.4079153249
1.0865539639
1.0884856286
1.0883866880
1.0881809319
1.0878612635
1.0874177709
1.0868387271
1.0861120205
1.0852256177
1.0841683200
1.0829304779
1.0815034645
1.0798792522
1.0780495768
1.0760038916
1.0737274855
1.0711992814
1.0683895224
1.0652592548
1.0617618453
1.0578483615
1.0534788720
1.0486385262
1.0433575239
1.0377299919
1.0319217714
1.0261608725
1.0207071371
1.0158063694
1.0116473128
1.0083373146
1.0059042304
1.0043220845
1.0035466080
1.0027338029
1.3742144220
1.3711435214
1.3714965029
1.3721993218
1.3732463027
1.3746276249
1.3763280208
1.3783256558
1.3805909597
1.3830855901
1.3857621585
1.3885642385
1.3914266356
1.3942765027
1.3970348444
1.3996183779
1.4019423693
1.4039243983
1.4054887813
1.4065716832
1.4071265816
1.4092025261
1.0824102905
1.0839645960
1.0839088244
1.0837890671
1.0835973675
1.0833228048
1.0829527452
1.0824745267
1.0818761131
1.0811469086
1.0802784993
1.0792640234
1.0780975123
1.0767728072
1.0752810970
1.0736084096
1.0717326579
1.0696201537
1.0672234042
1.0644805766
1.0613183900
1.0576611453
1.0534461858
1.0486464860
1.0432974362
1.0375183187
1.0315192266
1.0255835128
1.0200231632
1.0151226232
1.0110921373
1.0080483915
1.0060287768
1.0050263783
1.0039300449
1.3765508234
1.3738572989
1.3741439336
1.3747183819
1.3755829706
1.3767392710
1.3781860864
1.3799173955
1.3819201424
1.3841720661
1.3866402144
1.3892797843
1.3920332974
1.3948307893
1.3975907162
1.4002216843
1.4026258410
1.4047039600
1.4063619398
1.4075186029
1.4081139201
1.4104212450
1.0787447471
1.0799105620
1.0799029780
1.0798785771
1.0798272411
1.0797352616
1.0795869738
1.0793668243
1.0790603139
1.0786549627
1.0781411791
1.0775116407
1.0767605705
1.0758826470
1.0748704382
1.0737116853
1.0723860721
1.0708610695
1.0690884774
1.0670019883
1.0645172063
1.0615370934
1.0579641727
1.0537217161
1.0487836980
1.0432065375
1.0371532780
1.0308958998
1.0247838164
1.0191853543
1.0144221901
1.0107231581
1.0082168116
1.0069565918
1.0055127982
1.3789296928
1.3766291698
1.3768452166
1.3772830187
1.3779534033
1.3788700427
1.3800466736
1.3814940223
1.3832164512
1.3852085525
1.3874523649
1.3899150000
1.3925467322
1.3952803207
1.3980314241
1.4007003213
1.4031759665
1.4053424617
1.4070876260
1.4083133975
1.4089466814
1.4114817402
1.0756429203
1.0764379932
1.0764826453
1.0765608716
1.0766588389
1.0767580199
1.0768374238
1.0768762316
1.0768551584
1.0767576622
1.0765710229
1.0762857941
1.0758951091
1.0753937146
1.0747754773
1.0740307232
1.0731430586
1.0720849471
1.0708134559
1.0692663086
1.0673592156
1.0649873748
1.0620330233
1.0583823322
1.0539539816
1.0487359603
1.0428237223
1.0364445603
1.0299487823
1.0237624892
1.0183132031
1.0139570295
1.0109403485
1.0094028861
1.0075476917
1.3812590178
1.3793547436
1.3794987577
1.3797969668
1.3802686995
1.3809397638
1.3818389169
1.3829937760
1.3844262922
1.3861480721
1.3881562570
1.3904299164
1.3929270719
1.3955832074
1.3983112791
1.4010035251
1.4035362515
1.4057777063
1.4075986466
1.4088851814
1.4095520281
1.4123015663
1.0730818649
1.0735447609
1.0736458611
1.0738340737
1.0740899298
1.0743877164
1.0746986209
1.0749941835
1.0752482229
1.0754383669
1.0755473732
1.0755626398
1.0754755405
1.0752805949
1.0749730914
1.0745466022
1.0739900415
1.0732832717
1.0723924794
1.0712652184
1.0698255880
1.0679721263
1.0655804181
1.0625142094
1.0586492500
1.0539098987
1.0483155388
1.0420242497
1.0353510168
1.0287440155
1.0227159052
1.0177518262
1.0142357092
1.0124184128
1.0100925116
1.3834524820
1.3819354134
1.3820089214
1.3821702396
1.3824466339
1.3828753186
1.3834992926
1.3843623379
1.3855033897
1.3869506221
1.3887160013
1.3907904438
1.3931397862
1.3957025123
1.3983894040
1.4010854904
1.4036555781
1.4059534853
1.4078344777
1.4091703275
1.4098647277
1.4128072567
1.0709620528
1.0711421370
1.0713056079
1.0716141137
1.0720399828
1.0725473618
1.0730967409
1.0736495347
1.0741707145
1.0746306928
1.0750068491
1.0752829958
1.0754486431
1.0754982119
1.0754287052
1.0752374039
1.0749192367
1.0744626134
1.0738447923
1.0730264274
1.0719452819
1.0705112492
1.0686044904
1.0660804930
1.0627873546
1.0585981169
1.0534593085
1.0474478805
1.0408150300
1.0339931910
1.0275475625
1.0220783546
1.0181142909
1.0160359209
1.0131899590
1.3854362958
1.3842856630
1.3842930033
1.3843254692
1.3844171384
1.3846151475
1.3849750997
1.3855553664
1.3864105173
1.3875842892
1.3891028734
1.3909688480
1.3931560888
1.3956066983
1.3982302904
1.4009060696
1.4034890586
1.4058205916
1.4077424303
1.4091137686
1.4098285387
1.4129361585
1.0691384566
1.0690869085
1.0693222922
1.0697676873
1.0703834889
1.0711197279
1.0719226344
1.0727407171
1.0735282068
1.0742472451
1.0748694801
1.0753752814
1.0757527307
1.0759966931
1.0761063818
1.0760831559
1.0759281949
1.0756386776
1.0752034287
1.0745974353
1.0737747982
1.0726617716
1.0711513183
1.0691026746
1.0663515959
1.0627359785
1.0581414651
1.0525645822
1.0461764429
1.0393612933
1.0326987376
1.0268758006
1.0225572613
1.0202604238
1.0168602983
1.3871554784
1.3863400220
1.3862878528
1.3862039018
1.3861274614
1.3861134645
1.3862277491
1.3865409677
1.3871213338
1.3880266681
1.3892965294
1.3909449442
1.3929542357
1.3952711005
1.3978054649
1.4004326265
1.4030000654
1.4053390233
1.4072800399
1.4086715701
1.4093989191
1.4126394191
1.0674439373
1.0672072829
1.0675302180
1.0681393897
1.0689774926
1.0699747943
1.0710586244
1.0721613196
1.0732244727
1.0742012348
1.0750577045
1.0757715576
1.0763304598
1.0767307257
1.0769745646
1.0770678445
1.0770180110
1.0768306720
1.0765057363
1.0760322918
1.0753814356
1.0744982229
1.0732936825
1.0716399080
1.0693737428
1.0663147602
1.0623045847
1.0572699174
1.0512983964
1.0447041053
1.0380445370
1.0320557506
1.0275136479
1.0250642006
1.0210953961
1.3885771916
1.3880571159
1.3879536520
1.3877686682
1.3875447639
1.3873421095
1.3872338969
1.3873002222
1.3876204711
1.3882646990
1.3892847658
1.3907059069
1.3925194555
1.3946779923
1.3970936711
1.3996403055
1.4021605797
1.4044784487
1.4064157202
1.4078118409
1.4085441647
1.4118832192
1.0657026555
1.0653190870
1.0657550297
1.0665706138
1.0676815373
1.0689900495
1.0703984177
1.0718189443
1.0731787546
1.0744217759
1.0755094363
1.0764182168
1.0771370706
1.0776653349
1.0780094080
1.0781803221
1.0781918180
1.0780573568
1.0777869060
1.0773824840
1.0768314193
1.0760980145
1.0751140567
1.0737706314
1.0719162746
1.0693674992
1.0659401821
1.0615078289
1.0560819524
1.0498966905
1.0434581723
1.0375105645
1.0329029358
1.0303858455
1.0258558665
1.3896917633
1.3894213504
1.3892754774
1.3890061188
1.3886571638
1.3882912921
1.3879859350
1.3878275154
1.3879038248
1.3882950398
1.3890640682
1.3902470440
1.3918449445
1.3938177503
1.3960821297
1.3985133253
1.4009525151
1.4032196439
1.4051304890
1.4065169286
1.4072480819
1.4106512713
1.0637315772
1.0632294949
1.0638200269
1.0649087062
1.0663688814
1.0680626620
1.0698592031
1.0716464414
1.0733356209
1.0748620994
1.0761845644
1.0772808169
1.0781436772
1.0787777689
1.0791953861
1.0794137284
1.0794530448
1.0793340860
1.0790756402
1.0786909768
1.0781819775
1.0775312039
1.0766918427
1.0755774396
1.0740557815
1.0719528450
1.0690759200
1.0652642927
1.0604678429
1.0548419408
1.0488222267
1.0431228439
1.0386205174
1.0361326560
1.0310710773
1.3905108490
1.3904416251
1.3902620583
1.3899246676
1.3894727124
1.3889687470
1.3884913782
1.3881302126
1.3879785722
1.3881244680
1.3886404127
1.3895729765
1.3909333601
1.3926905594
1.3947683378
1.3970467811
1.3993695194
1.4015564531
1.4034204313
1.4047868103
1.4055144306
1.4089488381
1.0613301483
1.0607280892
1.0615425564
1.0630085850
1.0649316241
1.0671161992
1.0693884400
1.0716077870
1.0736694591
1.0755025713
1.0770666456
1.0783447175
1.0793371394
1.0800568727
1.0805243706
1.0807643919
1.0808041690
1.0806713271
1.0803922477
1.0799895723
1.0794775480
1.0788550572
1.0780958031
1.0771370654
1.0758706110
1.0741412690
1.0717623319
1.0685573680
1.0644325348
1.0594736058
1.0540368328
1.0487751091
1.0445459001
1.0421869655
1.0366429627
1.3910630207
1.3911470791
1.3909416879
1.3905510183
1.3900160422
1.3893968700
1.3887705076
1.3882267943
1.3878617560
1.3877688527
1.3880285492
1.3886971344
1.3897964017
1.3913059210
1.3931593309
1.3952455237
1.3974154744
1.3994941994
1.4012957295
1.4026397678
1.4033698882
1.4068051240
1.0582568696
1.0575640799
1.0587226218
1.0607310606
1.0632848508
1.0661070810
1.0689701945
1.0717029881
1.0741875112
1.0763519834
1.0781628517
1.0796141643
1.0807187338
1.0815017066
1.0819944521
1.0822309990
1.0822462642
1.0820745093
1.0817485994
1.0812986692
1.0807489326
1.0801120977
1.0793804527
1.0785146010
1.0774326134
1.0760045291
1.0740610377
1.0714262234
1.0679807878
1.0637546072
1.0590240475
1.0543582627
1.0505524947
1.0484157307
1.0424534728
1.3913881602
1.3915812069
1.3913566050
1.3909250447
1.3903239196
1.3896090340
1.3888534639
1.3881446716
1.3875787247
1.3872520974
1.3872513098
1.3876412772
1.3884543563
1.3896819832
1.3912705020
1.3931221726
1.3951015789
1.3970462042
1.3987778854
1.4001126173
1.4008694858
1.4042780452
1.0541873120
1.0534044854
1.0551254946
1.0579425131
1.0613745271
1.0650342410
1.0686329160
1.0719725737
1.0749311260
1.0774463035
1.0795011374
1.0811087109
1.0823004862
1.0831182572
1.0836073277
1.0838128125
1.0837780797
1.0835438809
1.0831485725
1.0826280014
1.0820139351
1.0813301590
1.0805849657
1.0797606651
1.0788020472
1.0776080486
1.0760349028
1.0739202790
1.0711359490
1.0676710618
1.0637273486
1.0597764005
1.0565159134
1.0546802418
1.0483730552
1.3915313089
1.3917950569
1.3915564756
1.3910938075
1.3904399801
1.3896451379
1.3887766162
1.3879173119
1.3871609019
1.3866044173
1.3863382495
1.3864343334
1.3869349157
1.3878439988
1.3891232036
1.3906932363
1.3924404742
1.3942261411
1.3958923587
1.3972586468
1.3981067440
1.4014637835
1.0486391274
1.0477591121
1.0504606301
1.0545234923
1.0591963071
1.0639567471
1.0684610450
1.0725025859
1.0759755169
1.0788450839
1.0811249571
1.0828574639
1.0840997517
1.0849148413
1.0853647945
1.0855073638
1.0853949275
1.0850744935
1.0845889531
1.0839781953
1.0832792310
1.0825241420
1.0817343220
1.0809113839
1.0800258244
1.0790069645
1.0777417494
1.0760910812
1.0739314103
1.0712255587
1.0681090156
1.0649494242
1.0623211103
1.0608457456
1.0542699432
1.3915377291
1.3918413226
1.3915926965
1.3911062614
1.3904099682
1.3895474367
1.3885789628
1.3875811249
1.3866430324
1.3858598010
1.3853231691
1.3851097992
1.3852701671
1.3858204101
1.3867390695
1.3879703765
1.3894329636
1.3910296010
1.3926478556
1.3941353114
1.3952306682
1.3985135085
1.0408280047
1.0398364384
1.0443611119
1.0504004617
1.0568372274
1.0630261402
1.0686133935
1.0734313176
1.0774289456
1.0806266359
1.0830868650
1.0848925673
1.0861333673
1.0868973017
1.0872651349
1.0873080515
1.0870874485
1.0866560414
1.0860602052
1.0853422736
1.0845423482
1.0836981463
1.0828411919
1.0819895642
1.0811374665
1.0802443714
1.0792305489
1.0779865120
1.0764036214
1.0744306418
1.0721462843
1.0698136195
1.0678675776
1.0667895748
1.0600188265
1.3914493054
1.3917697177
1.3915139117
1.3910090430
1.3902778931
1.3893571124
1.3882991175
1.3871728232
1.3860608489
1.3850539070
1.3842421555
1.3837037924
1.3834943775
1.3836397044
1.3841345387
1.3849500304
1.3860488983
1.3874025355
1.3889942464
1.3907727588
1.3924865741
1.3956743362
1.0293703408
1.0282458782
1.0363773420
1.0456282571
1.0545542876
1.0625337356
1.0693419662
1.0749501873
1.0794247164
1.0828768807
1.0854372642
1.0872392185
1.0884094006
1.0890625321
1.0892982930
1.0892007999
1.0888395880
1.0882720037
1.0875466304
1.0867066669
1.0857933274
1.0848475248
1.0839080651
1.0830065076
1.0821581477
1.0813511072
1.0805395135
1.0796469743
1.0785866549
1.0773028006
1.0758265217
1.0743198301
1.0730712712
1.0724057373
1.0655066426
1.3913018579
1.3916234069
1.3913624956
1.3908430628
1.3900827755
1.3891112096
1.3879724523
1.3867267835
1.3854486683
1.3842219315
1.3831317862
1.3822536514
1.3816428943
1.3813289984
1.3813172129
1.3816030181
1.3822013489
1.3831874646
1.3847338341
1.3870863863
1.3903099363
1.3933838262
1.0117225770
1.0104337542
1.0260953190
1.0406118354
1.0529188915
1.0629702885
1.0710006491
1.0772897746
1.0821005910
1.0856694512
1.0882078011
1.0899027870
1.0909175968
1.0913916393
1.0914411785
1.0911610484
1.0906269384
1.0898991044
1.0890267762
1.0880524294
1.0870166028
1.0859612547
1.0849298868
1.0839646255
1.0830989394
1.0823472215
1.0816963753
1.0811041678
1.0805094650
1.0798587398
1.0791436791
1.0784315708
1.0778652798
1.0776075867
1.0706366575
1.3911247558
1.3914379919
1.3911735092
1.3906424157
1.3898575028
1.3888414336
1.3876298513
1.3862737861
1.3848381820
1.3833975796
1.3820285168
1.3807980916
1.3797534364
1.3789163655
1.3782872954
1.3778681835
1.3777147345
1.3780310183
1.3793245631
1.3826143895
1.3895137884
1.3924585969
0.9845057928
0.9829977884
1.0143284795
1.0368601082
1.0531300231
1.0651076313
1.0740353275
1.0806844045
1.0855632073
1.0890373603
1.0913908786
1.0928547190
1.0936199439
1.0938437407
1.0936536583
1.0931512411
1.0924152874
1.0915066616
1.0904734416
1.0893558198
1.0881920966
1.0870234689
1.0858959109
1.0848594396
1.0839627177
1.0832434925
1.0827191735
1.0823808330
1.0821944213
1.0821128744
1.0820954007
1.0821227453
1.0821989281
1.0823281517
1.0753302390
1.3909411678
1.3912414620
1.3909745939
1.3904341768
1.3896285041
1.3885737091
1.3872971874
1.3858404899
1.3842580837
1.3826131457
1.3809697764
1.3793803259
1.3778728441
1.3764431801
1.3750561067
1.3736701635
1.3723111305
1.3712524115
1.3714667409
1.3757750534
1.3916615086
1.3944696169
0.9567572542
0.9549568922
1.0097970474
1.0393703112
1.0576719045
1.0700875344
1.0789243649
1.0852964847
1.0898291096
1.0929332563
1.0949145575
1.0960172186
1.0964415229
1.0963505918
1.0958754697
1.0951191244
1.0941597804
1.0930563324
1.0918538702
1.0905888929
1.0892961943
1.0880148025
1.0867913719
1.0856814853
1.0847461411
1.0840432515
1.0836176426
1.0834913899
1.0836569336
1.0840758461
1.0846806459
1.0853749116
1.0860352657
1.0865180243
1.0795259958
1.3907678969
1.3910540075
1.3907857089
1.3902379994
1.3894151647
1.3883273930
1.3869943502
1.3854483433
1.3837330301
1.3818989052
1.3799946365
1.3780517657
1.3760670501
1.3739847824
1.3716770260
1.3689234056
1.3653792379
1.3604868347
1.3532041690
1.3411135930
1.3172890328
1.2429776370
1.1300489535
1.1259352849
1.0749453048
1.0449605303
1.0497227708
1.0601313261
1.0703374384
1.0789862858
1.0858472191
1.0910239157
1.0947234271
1.0971788654
1.0986184136
1.0992524653
1.0992663731
1.0988157117
1.0980268906
1.0969990992
1.0958065294
1.0945037933
1.0931314501
1.0917212385
1.0903035787
1.0889143786
1.0875996608
1.0864186713
1.0854421328
1.0847448640
1.0843955029
1.0844437938
1.0849066045
1.0857547517
1.0868989249
1.0881756843
1.0893489773
1.0901431011
1.0831784149
1.3906169151
1.3908897193
1.3906207621
1.3900676103
1.3892311282
1.3881163366
1.3867360332
1.3851140850
1.3832839339
1.3812835999
1.3791459710
1.3768807551
1.3744517689
1.3717503914
1.3685589786
1.3645009801
1.3589580691
1.3508981752
1.3385110741
1.3184265622
1.2841291616
1.2191747948
1.1272020670
1.1231290778
1.0988912845
1.0788477197
1.0743797073
1.0772560785
1.0826144937
1.0882244009
1.0931293032
1.0969758355
1.0997073062
1.1014120738
1.1022406961
1.1023625649
1.1019409968
1.1011183826
1.1000122999
1.0987151191
1.0972948683
1.0958004522
1.0942670120
1.0927210080
1.0911881269
1.0897007070
1.0883033295
1.0870574546
1.0860412382
1.0853432213
1.0850519699
1.0852408785
1.0859481573
1.0871533734
1.0887495883
1.0905169912
1.0921237502
1.0931814340
1.0862553599
1.3904963352
1.3907578182
1.3904887893
1.3899318783
1.3890851917
1.3879495261
1.3865319856
1.3848493350
1.3829262863
1.3807900748
1.3784599566
1.3759271588
1.3731288832
1.3699170339
1.3660146057
1.3609591100
1.3540222349
1.3440756297
1.3293861695
1.3073588199
1.2744437031
1.2259759291
1.1692283230
1.1440289679
1.1210429948
1.1031445066
1.0944261559
1.0923733736
1.0939038563
1.0968478251
1.0999297697
1.1024962548
1.1042844466
1.1052579274
1.1054959617
1.1051283006
1.1042958003
1.1031267230
1.1017287855
1.1001866663
1.0985616334
1.0968965680
1.0952211365
1.0935566664
1.0919243148
1.0903529168
1.0888852954
1.0875841252
1.0865330467
1.0858312988
1.0855833793
1.0858818969
1.0867826550
1.0882727631
1.0902314418
1.0923934861
1.0943495245
1.0956197344
1.0887349386
1.3904101129
1.3906625978
1.3903938497
1.3898345948
1.3889808949
1.3878303870
1.3863858842
1.3846587750
1.3826671512
1.3804301161
1.3779568592
1.3752254898
1.3721555079
1.3685751690
1.3641773508
1.3584679919
1.3507070617
1.3398339243
1.3244090086
1.3026625511
1.2728759562
1.2343119491
1.1924348964
1.1628000249
1.1388868338
1.1207481454
1.1096047685
1.1043891704
1.1031222266
1.1039505525
1.1055237429
1.1070143843
1.1080085265
1.1083685949
1.1081136288
1.1073394734
1.1061677107
1.1047143799
1.1030785475
1.1013380690
1.0995482361
1.0977466713
1.0959583515
1.0942002922
1.0924898815
1.0908530048
1.0893308593
1.0879867385
1.0869081474
1.0862021874
1.0859852861
1.0863646020
1.0874093863
1.0891126573
1.0913433589
1.0938020850
1.0960209194
1.0974510566
1.0906033119
1.3903595730
1.3906051260
1.3903367188
1.3897761255
1.3889181019
1.3877582567
1.3862966474
1.3845412278
1.3825059020
1.3802047222
1.3776408304
1.3747848304
1.3715467983
1.3677438640
1.3630578077
1.3569904360
1.3488238505
1.3375886732
1.3220892932
1.3010790360
1.2737282085
1.2405166438
1.2053346406
1.1755657105
1.1511205338
1.1323703347
1.1197522560
1.1126079402
1.1095108311
1.1088758004
1.1093753738
1.1100974719
1.1105306028
1.1104638709
1.1098703666
1.1088196727
1.1074185777
1.1057739657
1.1039785750
1.1021053820
1.1002054829
1.0983128719
1.0964493403
1.0946290028
1.0928667230
1.0911864014
1.0896281120
1.0882555043
1.0871586010
1.0864497113
1.0862532335
1.0866861057
1.0878266640
1.0896719756
1.0920841693
1.0947409674
1.0971352808
1.0986721886
1.0918521433
1.3903437786
1.3905836764
1.3903153198
1.3897538236
1.3888933817
1.3877287317
1.3862587645
1.3844900220
1.3824347528
1.3801051187
1.3775021679
1.3745941176
1.3712883441
1.3673993620
1.3626076270
1.3564186330
1.3481324694
1.3368309373
1.3214360482
1.3009268812
1.2748114419
1.2438981467
1.2113257304
1.1819258212
1.1572785382
1.1381204265
1.1247429986
1.1166288972
1.1125883013
1.1111831245
1.1111181759
1.1114474072
1.1116081729
1.1113466788
1.1106072350
1.1094422724
1.1079488395
1.1062280975
1.1043692502
1.1024429213
1.1004984410
1.0985684244