<VTKFile type="UnstructuredGrid" version="0.1">
	<UnstructuredGrid>
		<Piece NumberOfPoints="13548" NumberOfCells="3387">
			<CellData>
				<DataArray type="Int32" Name="ghost" NumberOfComponents="1" Format="ascii">
1
1
1
1
1
1
1
1
1
1
1
1
1
1
1
1
1
1
1
1
1
1
1
1
1
1
1
1
1
1
1
1
1
1
1
1
1
1
1
1
1
1
1
1
1
1
1
1
1
1
1
1
1
1
1
1
1
1
0
0
0
0
0
0
0
0
0
0
0
0
0
0
0
0
0
0
0
0
1
1
0
0
0
0
0
0
0
0
0
0
0
0
0
0
0
0
0
0
0
0
0
0
0
0
0
0
0
0
0
0
0
0
0
1
1
0
0
0
0
0
0
0
0
0
0
0
0
0
0
0
0
0
0
0
0
1
1
0
0
0
0
0
0
0
0
0
0
0
0
0
0
0
0
0
0
0
0
0
0
0
0
0
0
0
0
0
0
0
0
0
1
1
0
0
0
0
0
0
0
0
0
0
0
0
0
0
0
0
0
0
0
0
1
1
0
0
0
0
0
0
0
0
0
0
0
0
0
0
0
0
0
0
0
0
0
0
0
0
0
0
0
0
0
0
0
0
0
1
1
0
0
0
0
0
0
0
0
0
0
0
0
0
0
0
0
0
0
0
0
1
1
0
0
0
0
0
0
0
0
0
0
0
0
0
0
0
0
0
0
0
0
0
0
0
0
0
0
0
0
0
0
0
0
0
1
1
0
0
0
0
0
0
0
0
0
0
0
0
0
0
0
0
0
0
0
0
1
1
0
0
0
0
0
0
0
0
0
0
0
0
0
0
0
0
0
0
0
0
0
0
0
0
0
0
0
0
0
0
0
0
0
1
1
0
0
0
0
0
0
0
0
0
0
0
0
0
0
0
0
0
0
0
0
1
1
0
0
0
0
0
0
0
0
0
0
0
0
0
0
0
0
0
0
0
0
0
0
0
0
0
0
0
0
0
0
0
0
0
1
1
0
0
0
0
0
0
0
0
0
0
0
0
0
0
0
0
0
0
0
0
1
1
0
0
0
0
0
0
0
0
0
0
0
0
0
0
0
0
0
0
0
0
0
0
0
0
0
0
0
0
0
0
0
0
0
1
1
0
0
0
0
0
0
0
0
0
0
0
0
0
0
0
0
0
0
0
0
1
1
0
0
0
0
0
0
0
0
0
0
0
0
0
0
0
0
0
0
0
0
0
0
0
0
0
0
0
0
0
0
0
0
0
1
1
0
0
0
0
0
0
0
0
0
0
0
0
0
0
0
0
0
0
0
0
1
1
0
0
0
0
0
0
0
0
0
0
0
0
0
0
0
0
0
0
0
0
0
0
0
0
0
0
0
0
0
0
0
0
0
1
1
0
0
0
0
0
0
0
0
0
0
0
0
0
0
0
0
0
0
0
0
1
1
0
0
0
0
0
0
0
0
0
0
0
0
0
0
0
0
0
0
0
0
0
0
0
0
0
0
0
0
0
0
0
0
0
1
1
0
0
0
0
0
0
0
0
0
0
0
0
0
0
0
0
0
0
0
0
1
1
0
0
0
0
0
0
0
0
0
0
0
0
0
0
0
0
0
0
0
0
0
0
0
0
0
0
0
0
0
0
0
0
0
1
1
0
0
0
0
0
0
0
0
0
0
0
0
0
0
0
0
0
0
0
0
1
1
0
0
0
0
0
0
0
0
0
0
0
0
0
0
0
0
0
0
0
0
0
0
0
0
0
0
0
0
0
0
0
0
0
1
1
0
0
0
0
0
0
0
0
0
0
0
0
0
0
0
0
0
0
0
0
1
1
0
0
0
0
0
0
0
0
0
0
0
0
0
0
0
0
0
0
0
0
0
0
0
0
0
0
0
0
0
0
0
0
0
1
1
0
0
0
0
0
0
0
0
0
0
0
0
0
0
0
0
0
0
0
0
1
1
0
0
0
0
0
0
0
0
0
0
0
0
0
0
0
0
0
0
0
0
0
0
0
0
0
0
0
0
0
0
0
0
0
1
1
0
0
0
0
0
0
0
0
0
0
0
0
0
0
0
0
0
0
0
0
1
1
0
0
0
0
0
0
0
0
0
0
0
0
0
0
0
0
0
0
0
0
0
0
0
0
0
0
0
0
0
0
0
0
0
1
1
0
0
0
0
0
0
0
0
0
0
0
0
0
0
0
0
0
0
0
0
1
1
0
0
0
0
0
0
0
0
0
0
0
0
0
0
0
0
0
0
0
0
0
0
0
0
0
0
0
0
0
0
0
0
0
1
1
0
0
0
0
0
0
0
0
0
0
0
0
0
0
0
0
0
0
0
0
1
1
0
0
0
0
0
0
0
0
0
0
0
0
0
0
0
0
0
0
0
0
0
0
0
0
0
0
0
0
0
0
0
0
0
1
1
0
0
0
0
0
0
0
0
0
0
0
0
0
0
0
0
0
0
0
0
1
1
0
0
0
0
0
0
0
0
0
0
0
0
0
0
0
0
0
0
0
0
0
0
0
0
0
0
0
0
0
0
0
0
0
1
1
0
0
0
0
0
0
0
0
0
0
0
0
0
0
0
0
0
0
0
0
1
1
0
0
0
0
0
0
0
0
0
0
0
0
0
0
0
0
0
0
0
0
0
0
0
0
0
0
0
0
0
0
0
0
0
1
1
0
0
0
0
0
0
0
0
0
0
0
0
0
0
0
0
0
0
0
0
1
1
0
0
0
0
0
0
0
0
0
0
0
0
0
0
0
0
0
0
0
0
0
0
0
0
0
0
0
0
0
0
0
0
0
1
1
0
0
0
0
0
0
0
0
0
0
0
0
0
0
0
0
0
0
0
0
1
1
0
0
0
0
0
0
0
0
0
0
0
0
0
0
0
0
0
0
0
0
0
0
0
0
0
0
0
0
0
0
0
0
0
1
1
0
0
0
0
0
0
0
0
0
0
0
0
0
0
0
0
0
0
0
0
1
1
0
0
0
0
0
0
0
0
0
0
0
0
0
0
0
0
0
0
0
0
0
0
0
0
0
0
0
0
0
0
0
0
0
1
1
0
0
0
0
0
0
0
0
0
0
0
0
0
0
0
0
0
0
0
0
1
1
0
0
0
0
0
0
0
0
0
0
0
0
0
0
0
0
0
0
0
0
0
0
0
0
0
0
0
0
0
0
0
0
0
1
1
0
0
0
0
0
0
0
0
0
0
0
0
0
0
0
0
0
0
0
0
1
1
0
0
0
0
0
0
0
0
0
0
0
0
0
0
0
0
0
0
0
0
0
0
0
0
0
0
0
0
0
0
0
0
0
1
1
0
0
0
0
0
0
0
0
0
0
0
0
0
0
0
0
0
0
0
0
0
1
1
0
0
0
0
0
0
0
0
0
0
0
0
0
0
0
0
0
0
0
0
0
0
0
0
0
0
0
0
0
0
0
0
0
0
1
1
0
0
0
0
0
0
0
0
0
0
0
0
0
0
0
0
0
0
0
0
0
0
0
0
0
0
0
0
0
0
0
0
0
0
0
0
0
0
0
0
0
0
0
0
0
0
0
0
0
0
0
0
0
0
0
0
0
1
1
0
0
0
0
0
0
0
0
0
0
0
0
0
0
0
0
0
0
0
0
0
0
0
0
0
0
0
0
0
0
0
0
0
0
0
0
0
0
0
0
0
0
0
0
0
0
0
0
0
0
0
0
0
0
0
0
0
1
1
0
0
0
0
0
0
0
0
0
0
0
0
0
0
0
0
0
0
0
0
0
0
0
0
0
0
0
0
0
0
0
0
0
0
0
0
0
0
0
0
0
0
0
0
0
0
0
0
0
0
0
0
0
0
0
0
0
1
1
0
0
0
0
0
0
0
0
0
0
0
0
0
0
0
0
0
0
0
0
0
0
0
0
0
0
0
0
0
0
0
0
0
0
0
0
0
0
0
0
0
0
0
0
0
0
0
0
0
0
0
0
0
0
0
0
0
1
1
0
0
0
0
0
0
0
0
0
0
0
0
0
0
0
0
0
0
0
0
0
0
0
0
0
0
0
0
0
0
0
0
0
0
0
0
0
0
0
0
0
0
0
0
0
0
0
0
0
0
0
0
0
0
0
0
0
1
1
0
0
0
0
0
0
0
0
0
0
0
0
0
0
0
0
0
0
0
0
0
0
0
0
0
0
0
0
0
0
0
0
0
0
0
0
0
0
0
0
0
0
0
0
0
0
0
0
0
0
0
0
0
0
0
0
0
1
1
0
0
0
0
0
0
0
0
0
0
0
0
0
0
0
0
0
0
0
0
0
0
0
0
0
0
0
0
0
0
0
0
0
0
0
0
0
0
0
0
0
0
0
0
0
0
0
0
0
0
0
0
0
0
0
0
0
1
1
0
0
0
0
0
0
0
0
0
0
0
0
0
0
0
0
0
0
0
0
0
0
0
0
0
0
0
0
0
0
0
0
0
0
0
0
0
0
0
0
0
0
0
0
0
0
0
0
0
0
0
0
0
0
0
0
0
1
1
0
0
0
0
0
0
0
0
0
0
0
0
0
0
0
0
0
0
0
0
0
0
0
0
0
0
0
0
0
0
0
0
0
0
0
0
0
0
0
0
0
0
0
0
0
0
0
0
0
0
0
0
0
0
0
0
0
1
1
0
0
0
0
0
0
0
0
0
0
0
0
0
0
0
0
0
0
0
0
0
0
0
0
0
0
0
0
0
0
0
0
0
0
0
0
0
0
0
0
0
0
0
0
0
0
0
0
0
0
0
0
0
0
0
0
0
1
1
0
0
0
0
0
0
0
0
0
0
0
0
0
0
0
0
0
0
0
0
0
1
1
0
0
0
0
0
0
0
0
0
0
0
0
0
0
0
0
0
0
0
0
0
0
0
0
0
0
0
0
0
0
0
0
0
0
1
1
0
0
0
0
0
0
0
0
0
0
0
0
0
0
0
0
0
0
0
0
1
1
0
0
0
0
0
0
0
0
0
0
0
0
0
0
0
0
0
0
0
0
0
0
0
0
0
0
0
0
0
0
0
0
0
1
1
0
0
0
0
0
0
0
0
0
0
0
0
0
0
0
0
0
0
0
0
1
1
0
0
0
0
0
0
0
0
0
0
0
0
0
0
0
0
0
0
0
0
0
0
0
0
0
0
0
0
0
0
0
0
0
1
1
0
0
0
0
0
0
0
0
0
0
0
0
0
0
0
0
0
0
0
0
1
1
0
0
0
0
0
0
0
0
0
0
0
0
0
0
0
0
0
0
0
0
0
0
0
0
0
0
0
0
0
0
0
0
0
1
1
0
0
0
0
0
0
0
0
0
0
0
0
0
0
0
0
0
0
0
0
1
1
0
0
0
0
0
0
0
0
0
0
0
0
0
0
0
0
0
0
0
0
0
0
0
0
0
0
0
0
0
0
0
0
0
1
1
0
0
0
0
0
0
0
0
0
0
0
0
0
0
0
0
0
0
0
0
1
1
0
0
0
0
0
0
0
0
0
0
0
0
0
0
0
0
0
0
0
0
0
0
0
0
0
0
0
0
0
0
0
0
0
1
1
0
0
0
0
0
0
0
0
0
0
0
0
0
0
0
0
0
0
0
0
1
1
0
0
0
0
0
0
0
0
0
0
0
0
0
0
0
0
0
0
0
0
0
0
0
0
0
0
0
0
0
0
0
0
0
1
1
0
0
0
0
0
0
0
0
0
0
0
0
0
0
0
0
0
0
0
0
1
1
0
0
0
0
0
0
0
0
0
0
0
0
0
0
0
0
0
0
0
0
0
0
0
0
0
0
0
0
0
0
0
0
0
1
1
0
0
0
0
0
0
0
0
0
0
0
0
0
0
0
0
0
0
0
0
1
1
0
0
0
0
0
0
0
0
0
0
0
0
0
0
0
0
0
0
0
0
0
0
0
0
0
0
0
0
0
0
0
0
0
1
1
0
0
0
0
0
0
0
0
0
0
0
0
0
0
0
0
0
0
0
0
1
1
0
0
0
0
0
0
0
0
0
0
0
0
0
0
0
0
0
0
0
0
0
0
0
0
0
0
0
0
0
0
0
0
0
1
1
0
0
0
0
0
0
0
0
0
0
0
0
0
0
0
0
0
0
0
0
1
1
0
0
0
0
0
0
0
0
0
0
0
0
0
0
0
0
0
0
0
0
0
0
0
0
0
0
0
0
0
0
0
0
0
1
1
0
0
0
0
0
0
0
0
0
0
0
0
0
0
0
0
0
0
0
0
1
1
0
0
0
0
0
0
0
0
0
0
0
0
0
0
0
0
0
0
0
0
0
0
0
0
0
0
0
0
0
0
0
0
0
1
1
0
0
0
0
0
0
0
0
0
0
0
0
0
0
0
0
0
0
0
0
1
1
0
0
0
0
0
0
0
0
0
0
0
0
0
0
0
0
0
0
0
0
0
0
0
0
0
0
0
0
0
0
0
0
0
1
1
0
0
0
0
0
0
0
0
0
0
0
0
0
0
0
0
0
0
0
0
1
1
0
0
0
0
0
0
0
0
0
0
0
0
0
0
0
0
0
0
0
0
0
0
0
0
0
0
0
0
0
0
0
0
0
1
1
0
0
0
0
0
0
0
0
0
0
0
0
0
0
0
0
0
0
0
0
1
1
0
0
0
0
0
0
0
0
0
0
0
0
0
0
0
0
0
0
0
0
0
0
0
0
0
0
0
0
0
0
0
0
0
1
1
0
0
0
0
0
0
0
0
0
0
0
0
0
0
0
0
0
0
0
0
1
1
0
0
0
0
0
0
0
0
0
0
0
0
0
0
0
0
0
0
0
0
0
0
0
0
0
0
0
0
0
0
0
0
0
1
1
0
0
0
0
0
0
0
0
0
0
0
0
0
0
0
0
0
0
0
0
1
1
0
0
0
0
0
0
0
0
0
0
0
0
0
0
0
0
0
0
0
0
0
0
0
0
0
0
0
0
0
0
0
0
0
1
1
0
0
0
0
0
0
0
0
0
0
0
0
0
0
0
0
0
0
0
0
1
1
0
0
0
0
0
0
0
0
0
0
0
0
0
0
0
0
0
0
0
0
0
0
0
0
0
0
0
0
0
0
0
0
0
1
1
0
0
0
0
0
0
0
0
0
0
0
0
0
0
0
0
0
0
0
0
1
1
0
0
0
0
0
0
0
0
0
0
0
0
0
0
0
0
0
0
0
0
0
0
0
0
0
0
0
0
0
0
0
0
0
1
1
0
0
0
0
0
0
0
0
0
0
0
0
0
0
0
0
0
0
0
0
1
1
0
0
0
0
0
0
0
0
0
0
0
0
0
0
0
0
0
0
0
0
0
0
0
0
0
0
0
0
0
0
0
0
0
1
1
0
0
0
0
0
0
0
0
0
0
0
0
0
0
0
0
0
0
0
0
1
1
0
0
0
0
0
0
0
0
0
0
0
0
0
0
0
0
0
0
0
0
0
0
0
0
0
0
0
0
0
0
0
0
0
1
1
0
0
0
0
0
0
0
0
0
0
0
0
0
0
0
0
0
0
0
0
1
1
0
0
0
0
0
0
0
0
0
0
0
0
0
0
0
0
0
0
0
0
0
0
0
0
0
0
0
0
0
0
0
0
0
1
1
1
1
1
1
1
1
1
1
1
1
1
1
1
1
1
1
1
1
1
1
1
1
1
1
1
1
1
1
1
1
1
1
1
1
1
1
1
1
1
1
1
1
1
1
1
1
1
1
1
1
1
1
1
1
1
1
				</DataArray>
				<DataArray type="Float64" Name="h" NumberOfComponents="1" Format="ascii">
1.3459942026
1.3428293654
1.3433974536
1.3445249448
1.3461945635
1.3483795539
1.3510429275
1.3541370363
1.3576032714
1.3613717070
1.3653616626
1.3694826451
1.3736354589
1.3777144694
1.3816103024
1.3852127412
1.3884145903
1.3911159685
1.3932286554
1.3946807311
1.3954210986
1.3954210986
1.1157484395
1.1175049215
1.1173929807
1.1171580971
1.1167902538
1.1162744948
1.1155911483
1.1147164472
1.1136221022
1.1122754665
1.1106399415
1.1086744902
1.1063340612
1.1035704363
1.1003329912
1.0965713532
1.0922392419
1.0872997629
1.0817337770
1.0755494546
1.0687928702
1.0615585480
1.0539946454
1.0463009857
1.0387170585
1.0314973104
1.0248800383
1.0190564922
1.0141474984
1.0101966813
1.0071803786
1.0050297431
1.0036595839
1.0029957816
1.0029957816
1.3428293654
1.3399174729
1.3404737679
1.3415792992
1.3432196158
1.3453720330
1.3480046600
1.3510756530
1.3545325647
1.3583115141
1.3623371621
1.3665230116
1.3707717625
1.3749768371
1.3790244827
1.3827963400
1.3861735365
1.3890418471
1.3912975799
1.3928543660
1.3936499183
1.3954210986
1.1175049215
1.1190583511
1.1189622658
1.1187590779
1.1184390978
1.1179878626
1.1173863592
1.1166116524
1.1156364420
1.1144291758
1.1129543926
1.1111720916
1.1090379150
1.1065036810
1.1035176562
1.1000265444
1.0959785627
1.0913278230
1.0860418374
1.0801106132
1.0735574739
1.0664511016
1.0589139037
1.0511247636
1.0433126368
1.0357366080
1.0286567505
1.0223011446
1.0168364234
1.0123530991
1.0088684853
1.0063446269
1.0047165190
1.0039213318
1.0029957816
1.3436281444
1.3407392442
1.3412813196
1.3423589578
1.3439587631
1.3460595761
1.3486314295
1.3516347043
1.3550193733
1.3587240619
1.3626758978
1.3667906857
1.3709731437
1.3751183122
1.3791135752
1.3828411988
1.3861824555
1.3890228844
1.3912583302
1.3928019102
1.3935909248
1.3954230371
1.1159288249
1.1175406766
1.1174433001
1.1172376703
1.1169141768
1.1164585360
1.1158520940
1.1150725539
1.1140936552
1.1128854158
1.1114146131
1.1096442943
1.1075340709
1.1050407159
1.1021183963
1.0987204240
1.0948018259
1.0903228316
1.0852549927
1.0795884896
1.0733409345
1.0665676652
1.0593695581
1.0518972621
1.0443489370
1.0369567874
1.0299648645
1.0236009192
1.0180474358
1.0134227759
1.0097771733
1.0071037883
1.0053623382
1.0045064586
1.0034807103
1.3451684289
1.3423267199
1.3428410355
1.3438642168
1.3453849255
1.3473849799
1.3498381734
1.3527092442
1.3559529100
1.3595127131
1.3633206172
1.3672969311
1.3713503088
1.3753789288
1.3792723611
1.3829140538
1.3861855263
1.3889718336
1.3911679049
1.3926858550
1.3934621844
1.3954118686
1.1129361276
1.1146391926
1.1145409843
1.1143339569
1.1140086490
1.1135511168
1.1129433868
1.1121643643
1.1111897298
1.1099923999
1.1085432335
1.1068107595
1.1047616215
1.1023612346
1.0995738925
1.0963640529
1.0926980146
1.0885458958
1.0838854769
1.0787066350
1.0730169186
1.0668489969
1.0602674200
1.0533748689
1.0463161079
1.0392748193
1.0324632862
1.0261037600
1.0204024711
1.0155254854
1.0115833120
1.0086290032
1.0066718566
1.0056996230
1.0044745392
1.3473953209
1.3446233220
1.3450973415
1.3460414515
1.3474472701
1.3493009063
1.3515815916
1.3542603877
1.3572989208
1.3606479089
1.3642463785
1.3680212117
1.3718867914
1.3757458438
1.3794910877
1.3830076609
1.3861774298
1.3888847608
1.3910232964
1.3925037527
1.3932615193
1.3953778244
1.1087394217
1.1105326023
1.1104364323
1.1102338408
1.1099155556
1.1094680787
1.1088743400
1.1081148410
1.1071678209
1.1060099682
1.1046173720
1.1029654595
1.1010295508
1.0987855063
1.0962095966
1.0932791604
1.0899732046
1.0862726595
1.0821617072
1.0776291304
1.0726704192
1.0672920460
1.0615167439
1.0553911941
1.0489957481
1.0424519278
1.0359258756
1.0296229608
1.0237693297
1.0185856408
1.0142600239
1.0109292036
1.0086763218
1.0075425086
1.0060217775
1.3502299894
1.3475479310
1.3479706048
1.3488139151
1.3500731778
1.3517398910
1.3538001547
1.3562330641
1.3590090681
1.3620880848
1.3654182160
1.3689347893
1.3725595334
1.3762009824
1.3797558598
1.3831114509
1.3861500877
1.3887553306
1.3908192975
1.3922510560
1.3929846931
1.3953063707
1.1036473496
1.1054912172
1.1054027229
1.1052158559
1.1049214560
1.1045063950
1.1039544644
1.1032477827
1.1023672416
1.1012934496
1.1000078881
1.0984929935
1.0967327272
1.0947131248
1.0924218456
1.0898481586
1.0869825211
1.0838152888
1.0803358640
1.0765314475
1.0723861774
1.0678824940
1.0630046124
1.0577463706
1.0521244768
1.0461941833
1.0400651990
1.0339110958
1.0279633521
1.0224894976
1.0177590246
1.0140072528
1.0114121187
1.0100877432
1.0081808823
1.3535726434
1.3509983169
1.3513605489
1.3520851234
1.3531715828
1.3546176238
1.3564173080
1.3585591210
1.3610239031
1.3637824742
1.3667937307
1.3700030587
1.3733409256
1.3767227600
1.3800500345
1.3832126097
1.3860934622
1.3885753702
1.3905488854
1.3919213804
1.3926256113
1.3951794239
1.0980322603
1.0998555566
1.0997827854
1.0996276167
1.0993807033
1.0990288839
1.0985563337
1.0979462505
1.0971815728
1.0962461070
1.0951258268
1.0938090107
1.0922867339
1.0905532578
1.0886052456
1.0864411607
1.0840600716
1.0814592522
1.0786318047
1.0755636465
1.0722305232
1.0685970262
1.0646181009
1.0602457007
1.0554427564
1.0502031472
1.0445764505
1.0386909101
1.0327630708
1.0270875929
1.0220043683
1.0178496004
1.0149093592
1.0133875572
1.0110144707
1.3573074779
1.3548565212
1.3551515847
1.3557440877
1.3566380695
1.3578378767
1.3593462053
1.3611618403
1.3632771388
1.3656751072
1.3683267812
1.3711888950
1.3742017874
1.3772886815
1.3803564499
1.3832979675
1.3859971529
1.3883362354
1.3902044190
1.3915075928
1.3921773539
1.3949774227
1.0922778555
1.0939929152
1.0939454268
1.0938407767
1.0936688211
1.0934155278
1.0930644343
1.0925986452
1.0920018171
1.0912594295
1.0903601768
1.0892960894
1.0880628860
1.0866601979
1.0850904999
1.0833580953
1.0814674803
1.0794203467
1.0772123893
1.0748293746
1.0722428837
1.0694076195
1.0662609915
1.0627276176
1.0587316664
1.0542173287
1.0491778556
1.0436884942
1.0379315885
1.0322031033
1.0268900078
1.0224170355
1.0191794851
1.0174804223
1.0145772656
1.3613067127
1.3589932524
1.3592171067
1.3596694241
1.3603587211
1.3612960411
1.3624929004
1.3639587643
1.3656980984
1.3677068724
1.3699691511
1.3724539251
1.3751122455
1.3778758472
1.3806575939
1.3833538833
1.3858500621
1.3880283211
1.3897770535
1.3910011732
1.3916315143
1.3946795560
1.0867234133
1.0882450639
1.0882329070
1.0881983638
1.0881295151
1.0880101311
1.0878215317
1.0875449666
1.0871628972
1.0866604009
1.0860266380
1.0852549135
1.0843428712
1.0832925778
1.0821092538
1.0808000311
1.0793721904
1.0778300047
1.0761713225
1.0743833950
1.0724380509
1.0702878910
1.0678641912
1.0650788672
1.0618337733
1.0580388636
1.0536413386
1.0486638001
1.0432416081
1.0376471606
1.0322841854
1.0276400438
1.0242049746
1.0223782835
1.0189037407
1.3654359508
1.3632732941
1.3634247664
1.3637343683
1.3642147763
1.3648833538
1.3657601009
1.3668649601
1.3682144915
1.3698178180
1.3716723958
1.3737600010
1.3760428243
1.3784616940
1.3809360630
1.3833664515
1.3856404128
1.3876409631
1.3892565925
1.3903920803
1.3909781164
1.3942643183
1.0816179533
1.0828797214
1.0829127395
1.0829672357
1.0830281131
1.0830751070
1.0830852180
1.0830356151
1.0829052893
1.0826766223
1.0823369370
1.0818784804
1.0812984514
1.0805989769
1.0797857011
1.0788664580
1.0778495968
1.0767409660
1.0755406719
1.0742391251
1.0728121634
1.0712166626
1.0693871564
1.0672353992
1.0646561550
1.0615414957
1.0578070086
1.0534305522
1.0484967977
1.0432362900
1.0380387605
1.0334189318
1.0299321790
1.0280555706
1.0239963797
1.3695612466
1.3675623747
1.3676431678
1.3678131350
1.3680885187
1.3684922181
1.3690518615
1.3697970634
1.3707558189
1.3719500372
1.3733902192
1.3750708700
1.3769656905
1.3790249500
1.3811752430
1.3833221594
1.3853564803
1.3871633055
1.3886325039
1.3896698306
1.3902066387
1.3937108403
1.0770953552
1.0780586122
1.0781464169
1.0783080905
1.0785234379
1.0787657561
1.0790051268
1.0792120640
1.0793596629
1.0794253863
1.0793927198
1.0792510445
1.0789954748
1.0786267175
1.0781495239
1.0775713338
1.0769007881
1.0761450000
1.0753067121
1.0743808372
1.0733498917
1.0721794829
1.0708141439
1.0691749894
1.0671622467
1.0646652447
1.0615839564
1.0578647161
1.0535464738
1.0488089285
1.0440021596
1.0396295475
1.0362695852
1.0344428835
1.0298171727
1.3735549930
1.3717326349
1.3717471376
1.3717858070
1.3718676238
1.3720198854
1.3722765199
1.3726754349
1.3732547618
1.3740479882
1.3750780739
1.3763516560
1.3778538060
1.3795445001
1.3813582642
1.3832067722
1.3849855306
1.3865833271
1.3878930095
1.3888226824
1.3893052786
1.3929983556
1.0731756505
1.0738307343
1.0739835066
1.0742711048
1.0746655720
1.0751306300
1.0756262746
1.0761134763
1.0765569797
1.0769273598
1.0772027758
1.0773686601
1.0774172893
1.0773474540
1.0771627030
1.0768699281
1.0764780547
1.0759956282
1.0754284595
1.0747768013
1.0740313477
1.0731689989
1.0721484461
1.0709066063
1.0693585826
1.0674036633
1.0649416039
1.0619029258
1.0582920848
1.0542379150
1.0500333108
1.0461338887
1.0430928499
1.0414278926
1.0362850956
1.3773021329
1.3756682309
1.3756231480
1.3755434020
1.3754497161
1.3753723760
1.3753498935
1.3754265925
1.3756488587
1.3760599908
1.3766940338
1.3775689056
1.3786805354
1.3799989011
1.3814671908
1.3830046787
1.3845133191
1.3858875392
1.3870250615
1.3878378480
1.3882614079
1.3921067052
1.0697834351
1.0701445286
1.0703746824
1.0708104524
1.0714122653
1.0721300484
1.0729097730
1.0736995975
1.0744534630
1.0751334257
1.0757114351
1.0761686856
1.0764947632
1.0766869759
1.0767482462
1.0766855335
1.0765086163
1.0762279427
1.0758527701
1.0753890360
1.0748361057
1.0741831616
1.0734050592
1.0724582892
1.0712792460
1.0697869863
1.0678944239
1.0655319584
1.0626839119
1.0594348413
1.0560113203
1.0527910494
1.0502537422
1.0488618950
1.0432789217
1.3807067499
1.3792713884
1.3791752116
1.3789934544
1.3787474917
1.3784690179
1.3781991427
1.3779863524
1.3778829323
1.3779398098
1.3781999476
1.3786913937
1.3794204300
1.3803669389
1.3814839290
1.3826997858
1.3839251172
1.3850622932
1.3860159603
1.3867034605
1.3870636916
1.3910184868
1.0667730602
1.0668697495
1.0671945545
1.0678085859
1.0686547928
1.0696634195
1.0707613730
1.0718802202
1.0729606444
1.0739549460
1.0748286465
1.0755592300
1.0761346072
1.0765518712
1.0768146379
1.0769311537
1.0769130409
1.0767733263
1.0765250351
1.0761797680
1.0757453289
1.0752230318
1.0746043019
1.0738668837
1.0729723272
1.0718664168
1.0704858682
1.0687748409
1.0667121622
1.0643481663
1.0618406904
1.0594673984
1.0575922600
1.0565719985
1.0506460663
1.3836965391
1.3824664891
1.3823288443
1.3820637264
1.3816920548
1.3812452945
1.3807650387
1.3803014604
1.3799100788
1.3796468261
1.3795614083
1.3796899817
1.3800483172
1.3806269720
1.3813893074
1.3822748608
1.3832053372
1.3840936500
1.3848535167
1.3854090281
1.3857028163
1.3897198240
1.0639525175
1.0638208853
1.0642665468
1.0651030065
1.0662464259
1.0675989036
1.0690617096
1.0705454136
1.0719750445
1.0732924333
1.0744572455
1.0754446735
1.0762428400
1.0768506637
1.0772744097
1.0775253150
1.0776181622
1.0775693988
1.0773961352
1.0771154160
1.0767428251
1.0762909436
1.0757671018
1.0751704715
1.0744896049
1.0737014333
1.0727741989
1.0716768673
1.0703955963
1.0689571289
1.0674523739
1.0660447809
1.0649500831
1.0643771190
1.0582164595
1.3862260118
1.3852031866
1.3850341209
1.3847051410
1.3842356593
1.3836553278
1.3830041267
1.3823313982
1.3816931098
1.3811473854
1.3807481510
1.3805378833
1.3805407186
1.3807573674
1.3811636334
1.3817121747
1.3823384725
1.3829685434
1.3835276115
1.3839475348
1.3841740863
1.3882031066
1.0610978007
1.0607729257
1.0613812801
1.0625075880
1.0640259836
1.0657981289
1.0676911461
1.0695896457
1.0714009502
1.0730565726
1.0745119758
1.0757425627
1.0767395094
1.0775063632
1.0780545631
1.0784004383
1.0785635021
1.0785646094
1.0784253228
1.0781678620
1.0778147557
1.0773886292
1.0769114260
1.0764029134
1.0758789822
1.0753499983
1.0748206713
1.0742925858
1.0737690289
1.0732622836
1.0728000210
1.0724241080
1.0721810202
1.0721025634
1.0658167380
1.3882781508
1.3874584259
1.3872677014
1.3868938156
1.3863537446
1.3856739004
1.3848907179
1.3840503298
1.3832064504
1.3824165938
1.3817363269
1.3812124277
1.3808763064
1.3807389884
1.3807893608
1.3809958086
1.3813107190
1.3816767385
1.3820327833
1.3823190175
1.3824820084
1.3864717546
1.0579540453
1.0574647662
1.0583052007
1.0598262937
1.0618349024
1.0641346550
1.0665480247
1.0689287159
1.0711654031
1.0731810163
1.0749300910
1.0763921574
1.0775653890
1.0784615419
1.0791002625
1.0795053796
1.0797028800
1.0797191125
1.0795805244
1.0793142805
1.0789490162
1.0785160743
1.0780504266
1.0775909955
1.0771802650
1.0768626077
1.0766816654
1.0766762558
1.0768731118
1.0772765588
1.0778549447
1.0785265529
1.0791589778
1.0795925551
1.0732838425
1.3898631965
1.3892358865
1.3890323390
1.3886306945
1.3880447379
1.3872964591
1.3864171040
1.3854475178
1.3844367305
1.3834390456
1.3825091911
1.3816962175
1.3810375774
1.3805544903
1.3802501816
1.3801110680
1.3801100035
1.3802102827
1.3803679012
1.3805316111
1.3806436413
1.3845438325
1.0542208997
1.0535870417
1.0547795977
1.0568616550
1.0595312473
1.0625099233
1.0655640023
1.0685130055
1.0712287707
1.0736302595
1.0756768209
1.0773578900
1.0786838443
1.0796789914
1.0803746234
1.0808046548
1.0810033385
1.0810036159
1.0808372752
1.0805362548
1.0801345400
1.0796709175
1.0791917354
1.0787533116
1.0784232437
1.0782791500
1.0784039779
1.0788755082
1.0797468527
1.0810179485
1.0826010949
1.0842930345
1.0857829355
1.0867191726
1.0804761079
1.3910153001
1.3905635060
1.3903545439
1.3899394881
1.3893283902
1.3885379410
1.3875929347
1.3865272718
1.3853832792
1.3842097883
1.3830584191
1.3819785013
1.3810121611
1.3801904565
1.3795319465
1.3790437354
1.3787235408
1.3785609513
1.3785344677
1.3786028655
1.3786948295
1.3824584552
1.0495168687
1.0487487496
1.0505113378
1.0534222443
1.0570050444
1.0608698961
1.0647181835
1.0683375424
1.0715906607
1.0744020588
1.0767451660
1.0786273522
1.0800776821
1.0811379520
1.0818547212
1.0822745337
1.0824415649
1.0823963119
1.0821762861
1.0818180363
1.0813602272
1.0808479344
1.0803372903
1.0799001270
1.0796272041
1.0796276264
1.0800223388
1.0809273974
1.0824223077
1.0845035393
1.0870297824
1.0896812936
1.0919773565
1.0933853428
1.0872788679
1.3917871456
1.3914890296
1.3912803332
1.3908628192
1.3902424933
1.3894302068
1.3884434666
1.3873080568
1.3860580689
1.3847350110
1.3833853723
1.3820567726
1.3807943757
1.3796382630
1.3786229043
1.3777788281
1.3771343354
1.3767143283
1.3765306581
1.3765586791
1.3767011080
1.3802868696
1.0433091849
1.0424091064
1.0451581359
1.0493372306
1.0542026783
1.0592277598
1.0640530957
1.0684504890
1.0722922429
1.0755254670
1.0781513289
1.0802053865
1.0817427555
1.0828277828
1.0835256730
1.0838977589
1.0839993942
1.0838792654
1.0835807723
1.0831448242
1.0826141314
1.0820390187
1.0814839280
1.0810343206
1.0808018923
1.0809247684
1.0815593071
1.0828572800
1.0849223399
1.0877463908
1.0911363375
1.0946632439
1.0976908954
1.0995247145
1.0936067470
1.3922433883
1.3920740976
1.3918695312
1.3914569452
1.3908382104
1.3900181277
1.3890065033
1.3878203177
1.3864843811
1.3850314244
1.3835009779
1.3819368325
1.3803850163
1.3788929191
1.3775105134
1.3762941325
1.3753100637
1.3746333773
1.3743322151
1.3744222063
1.3747753373
1.3781501384
1.0347738470
1.0337392343
1.0383128779
1.0444925877
1.0511728447
1.0577000900
1.0636961677
1.0689621034
1.0734167699
1.0770565272
1.0799281097
1.0821067229
1.0836806987
1.0847412267
1.0853746341
1.0856583583
1.0856594763
1.0854349522
1.0850338711
1.0845010567
1.0838825901
1.0832330803
1.0826239236
1.0821523869
1.0819487472
1.0821772267
1.0830261288
1.0846790707
1.0872600763
1.0907541219
1.0949179326
1.0992222889
1.1028935096
1.1050987497
1.0994027404
1.3924537629
1.3923876377
1.3921893751
1.3917857878
1.3911747199
1.3903550002
1.3893286947
1.3881037192
1.3866949778
1.3851252838
1.3834254402
1.3816329121
1.3797914161
1.3779522187
1.3761781401
1.3745518115
1.3731857651
1.3722285912
1.3718519344
1.3721833859
1.3731183941
1.3762598307
1.0224997336
1.0213271998
1.0294988253
1.0389154086
1.0481476110
1.0565566214
1.0638804925
1.0700468147
1.0750820261
1.0790669168
1.0821129040
1.0843448150
1.0858891544
1.0868661319
1.0873839224
1.0875360255
1.0874007688
1.0870427528
1.0865160550
1.0858686832
1.0851493039
1.0844158693
1.0837454734
1.0832454531
1.0830622830
1.0833831122
1.0844241918
1.0863963409
1.0894393532
1.0935283917
1.0983717929
1.1033500571
1.1075717800
1.1100911215
1.1046339335
1.3924862345
1.3924989001
1.3923077209
1.3919144849
1.3913132724
1.3904972475
1.3894609935
1.3882034407
1.3867292872
1.3850504888
1.3831872455
1.3811675070
1.3790278395
1.3768168899
1.3746029113
1.3724893861
1.3706393303
1.3693055709
1.3688522880
1.3697121714
1.3721113062
1.3750102470
1.0039093105
1.0025956497
1.0182748687
1.0329897429
1.0456852743
1.0562800012
1.0649539141
1.0719294172
1.0774194809
1.0816233775
1.0847300935
1.0869177235
1.0883508370
1.0891771357
1.0895247711
1.0895014780
1.0891951486
1.0886765633
1.0880035715
1.0872263251
1.0863951528
1.0855704009
1.0848336825
1.0843007688
1.0841319959
1.0845341978
1.0857473616
1.0880045701
1.0914565844
1.0960659732
1.1014949705
1.1070444201
1.1117250716
1.1145025973
1.1092870633
1.3924022891
1.3924722312
1.3922879037
1.3919044294
1.3913124944
1.3905000677
1.3894547244
1.3881667420
1.3866305574
1.3848464563
1.3828219528
1.3805713579
1.3781168945
1.3754931923
1.3727574425
1.3700136434
1.3674599861
1.3654732622
1.3647497297
1.3664964248
1.3724976962
1.3751614463
0.9755028127
0.9740278243
1.0053859654
1.0281958979
1.0449792975
1.0576463960
1.0673688185
1.0748492445
1.0805380516
1.0847584972
1.0877695264
1.0897929182
1.0910229959
1.0916283988
1.0917523022
1.0915129510
1.0910049427
1.0903030531
1.0894672394
1.0885485109
1.0875978271
1.0866769766
1.0858709863
1.0853025357
1.0851435894
1.0856174958
1.0869838148
1.0894930622
1.0933024649
1.0983597931
1.1042841375
1.1103074948
1.1153615962
1.1183457549
1.1133634818
1.3922537590
1.3923631897
1.3921848644
1.3918094269
1.3912246042
1.3904137473
1.3893580573
1.3880397011
1.3864430407
1.3845560758
1.3823715004
1.3798851070
1.3770950899
1.3740042377
1.3706273791
1.3670174219
1.3633337516
1.3600120703
1.3582015726
1.3608972285
1.3757404342
1.3781986650
0.9461152997
0.9444038840
0.9994632959
1.0295190560
1.0485317396
1.0618223902
1.0716257518
1.0789850637
1.0844645149
1.0884299202
1.0911602784
1.0928908806
1.0938273024
1.0941474071
1.0940017448
1.0935139017
1.0927815473
1.0918808529
1.0908720064
1.0898054992
1.0887318802
1.0877134752
1.0868377123
1.0862327783
1.0860801818
1.0866167938
1.0881178358
1.0908468366
1.0949636549
1.1003999412
1.1067353359
1.1131436242
1.1184945218
1.1216398193
1.1168738458
1.3920804746
1.3922154570
1.3920419935
1.3916724147
1.3910919605
1.3902800177
1.3892121876
1.3878632987
1.3862081819
1.3842224383
1.3818823892
1.3791607486
1.3760208089
1.3724088861
1.3682408440
1.3633830284
1.3576153953
1.3505325130
1.3412573378
1.3275280967
1.3025212951
1.2273828608
1.1133728168
1.1092433392
1.0615964868
1.0325625350
1.0379525672
1.0491143280
1.0602455825
1.0699551925
1.0779495089
1.0842631749
1.0890408102
1.0924680924
1.0947450506
1.0960731840
1.0966448786
1.0966335031
1.0961887044
1.0954341039
1.0944668689
1.0933620930
1.0921784623
1.0909647248
1.0897701168
1.0886567279
1.0877135126
1.0870729143
1.0869240854
1.0875146866
1.0891320838
1.0920490187
1.0964250440
1.1021754100
1.1088446994
1.1155586702
1.1211397749
1.1244074665
1.1198345645
1.3919108316
1.3920607502
1.3918909279
1.3915250291
1.3909462987
1.3901308754
1.3890496836
1.3876712869
1.3859621266
1.3838864651
1.3814050112
1.3784676188
1.3750022204
1.3708981869
1.3659756714
1.3599362959
1.3522743860
1.3420930534
1.3277215334
1.3059054284
1.2701759348
1.2039923715
1.1107658357
1.1065747703
1.0839172853
1.0649874953
1.0614188356
1.0652540244
1.0717064689
1.0785283194
1.0847065498
1.0898189421
1.0937438614
1.0965191467
1.0982649443
1.0991410883
1.0993190264
1.0989614645
1.0982125254
1.0971924950
1.0959956169
1.0946941865
1.0933441863
1.0919917935
1.0906843272
1.0894830936
1.0884778856
1.0878043313
1.0876575378
1.0882935268
1.0900087690
1.0930821497
1.0976709774
1.1036748913
1.1106084175
1.1175588375
1.1233137114
1.1266717443
1.1222643286
1.3917627578
1.3919193100
1.3917519123
1.3913877036
1.3908084324
1.3899877526
1.3888929577
1.3874876899
1.3857316979
1.3835800622
1.3809807531
1.3778650535
1.3741329168
1.3696312630
1.3641158267
1.3571945537
1.3482407137
1.3362462294
1.3195990898
1.2958029621
1.2613600644
1.2116059566
1.1538330845
1.1282795342
1.1058644699
1.0887068398
1.0808090097
1.0797298628
1.0824096749
1.0866441552
1.0910905544
1.0950175282
1.0980896601
1.1002141500
1.1014359987
1.1018736633
1.1016763822
1.1009945060
1.0999649701
1.0987033137
1.0972997998
1.0958231870
1.0943262770
1.0928523975
1.0914467519
1.0901696117
1.0891111487
1.0884093003
1.0882636596
1.0889365006
1.0907308587
1.0939294458
1.0986863799
1.1048874836
1.1120227190
1.1191497334
1.1250312958
1.1284537040
1.1241812905
1.3916438173
1.3917996981
1.3916334733
1.3912690796
1.3906872626
1.3898599742
1.3887519928
1.3873235370
1.3855296763
1.3833190627
1.3806308310
1.3773836497
1.3734592493
1.3686790081
1.3627648326
1.3552870726
1.3455986108
1.3327479948
1.3154050348
1.2918917144
1.2605507358
1.2206817968
1.1778035645
1.1476473633
1.1238196839
1.1061157950
1.0956552677
1.0913628948
1.0912434301
1.0933923225
1.0963809110
1.0992939643
1.1016362953
1.1032072233
1.1039870511
1.1040580249
1.1035497143
1.1026013106
1.1013430327
1.0998858562
1.0983162419
1.0966996380
1.0950859440
1.0935159520
1.0920329955
1.0906963842
1.0895964497
1.0888727613
1.0887281425
1.0894293126
1.0912838018
1.0945765292
1.0994583720
1.1058039981
1.1130846692
1.1203365481
1.1263057211
1.1297716879
1.1256019356
1.3915531798
1.3917006143
1.3915341821
1.3911676373
1.3905812022
1.3897459065
1.3886251430
1.3871772405
1.3853546764
1.3831025452
1.3803551582
1.3770244360
1.3729827450
1.3680394192
1.3619030233
1.3541358488
1.3441071309
1.3309494109
1.3135692382
1.2908079372
1.2619013158
1.2273780352
1.1911844212
1.1607987236
1.1362079094
1.1177017899
1.1056539761
1.0993758896
1.0974055265
1.0980961732
1.1000347409
1.1022142033
1.1040350856
1.1052178992
1.1056931897
1.1055148224
1.1047969235
1.1036699972
1.1022591047
1.1006718025
1.0989918028
1.0972822374
1.0955910309
1.0939572848
1.0924231185
1.0910472523
1.0899201791
1.0891825981
1.0890394891
1.0897604649
1.0916558749
1.0950118057
1.0999765737
1.1064170391
1.1137918845
1.1211233400
1.1271473263
1.1306400417
1.1265394886
1.3914821675
1.3916114304
1.3914431891
1.3910722098
1.3904786554
1.3896333974
1.3884995510
1.3870350507
1.3851917985
1.3829140587
1.3801350014
1.3767649004
1.3726738247
1.3676684090
1.3614551406
1.3535984025
1.3434829295
1.3302893264
1.3130388847
1.2907976265
1.2631412773
1.2309309044
1.1973569510
1.1673134341
1.1424382591
1.1234441695
1.1105831491
1.1033046098
1.1003765665
1.1002951472
1.1016766091
1.1034769607
1.1050425120
1.1060482078
1.1063938474
1.1061149203
1.1053152698
1.1041196836
1.1026500683
1.1010122031
1.0992886527
1.0975417681