<VTKFile type="UnstructuredGrid" version="0.1">
	<UnstructuredGrid>
		<Piece NumberOfPoints="13548" NumberOfCells="3387">
			<CellData>
				<DataArray type="Int32" Name="ghost" NumberOfComponents="1" Format="ascii">
1
1
1
1
1
1
1
1
1
1
1
1
1
1
1
1
1
1
1
1
1
1
1
1
1
1
1
1
1
1
1
1
1
1
1
1
1
1
1
1
1
1
1
1
1
1
1
1
1
1
1
1
1
1
1
1
1
1
0
0
0
0
0
0
0
0
0
0
0
0
0
0
0
0
0
0
0
0
1
1
0
0
0
0
0
0
0
0
0
0
0
0
0
0
0
0
0
0
0
0
0
0
0
0
0
0
0
0
0
0
0
0
0
1
1
0
0
0
0
0
0
0
0
0
0
0
0
0
0
0
0
0
0
0
0
1
1
0
0
0
0
0
0
0
0
0
0
0
0
0
0
0
0
0
0
0
0
0
0
0
0
0
0
0
0
0
0
0
0
0
1
1
0
0
0
0
0
0
0
0
0
0
0
0
0
0
0
0
0
0
0
0
1
1
0
0
0
0
0
0
0
0
0
0
0
0
0
0
0
0
0
0
0
0
0
0
0
0
0
0
0
0
0
0
0
0
0
1
1
0
0
0
0
0
0
0
0
0
0
0
0
0
0
0
0
0
0
0
0
1
1
0
0
0
0
0
0
0
0
0
0
0
0
0
0
0
0
0
0
0
0
0
0
0
0
0
0
0
0
0
0
0
0
0
1
1
0
0
0
0
0
0
0
0
0
0
0
0
0
0
0
0
0
0
0
0
1
1
0
0
0
0
0
0
0
0
0
0
0
0
0
0
0
0
0
0
0
0
0
0
0
0
0
0
0
0
0
0
0
0
0
1
1
0
0
0
0
0
0
0
0
0
0
0
0
0
0
0
0
0
0
0
0
1
1
0
0
0
0
0
0
0
0
0
0
0
0
0
0
0
0
0
0
0
0
0
0
0
0
0
0
0
0
0
0
0
0
0
1
1
0
0
0
0
0
0
0
0
0
0
0
0
0
0
0
0
0
0
0
0
1
1
0
0
0
0
0
0
0
0
0
0
0
0
0
0
0
0
0
0
0
0
0
0
0
0
0
0
0
0
0
0
0
0
0
1
1
0
0
0
0
0
0
0
0
0
0
0
0
0
0
0
0
0
0
0
0
1
1
0
0
0
0
0
0
0
0
0
0
0
0
0
0
0
0
0
0
0
0
0
0
0
0
0
0
0
0
0
0
0
0
0
1
1
0
0
0
0
0
0
0
0
0
0
0
0
0
0
0
0
0
0
0
0
1
1
0
0
0
0
0
0
0
0
0
0
0
0
0
0
0
0
0
0
0
0
0
0
0
0
0
0
0
0
0
0
0
0
0
1
1
0
0
0
0
0
0
0
0
0
0
0
0
0
0
0
0
0
0
0
0
1
1
0
0
0
0
0
0
0
0
0
0
0
0
0
0
0
0
0
0
0
0
0
0
0
0
0
0
0
0
0
0
0
0
0
1
1
0
0
0
0
0
0
0
0
0
0
0
0
0
0
0
0
0
0
0
0
1
1
0
0
0
0
0
0
0
0
0
0
0
0
0
0
0
0
0
0
0
0
0
0
0
0
0
0
0
0
0
0
0
0
0
1
1
0
0
0
0
0
0
0
0
0
0
0
0
0
0
0
0
0
0
0
0
1
1
0
0
0
0
0
0
0
0
0
0
0
0
0
0
0
0
0
0
0
0
0
0
0
0
0
0
0
0
0
0
0
0
0
1
1
0
0
0
0
0
0
0
0
0
0
0
0
0
0
0
0
0
0
0
0
1
1
0
0
0
0
0
0
0
0
0
0
0
0
0
0
0
0
0
0
0
0
0
0
0
0
0
0
0
0
0
0
0
0
0
1
1
0
0
0
0
0
0
0
0
0
0
0
0
0
0
0
0
0
0
0
0
1
1
0
0
0
0
0
0
0
0
0
0
0
0
0
0
0
0
0
0
0
0
0
0
0
0
0
0
0
0
0
0
0
0
0
1
1
0
0
0
0
0
0
0
0
0
0
0
0
0
0
0
0
0
0
0
0
1
1
0
0
0
0
0
0
0
0
0
0
0
0
0
0
0
0
0
0
0
0
0
0
0
0
0
0
0
0
0
0
0
0
0
1
1
0
0
0
0
0
0
0
0
0
0
0
0
0
0
0
0
0
0
0
0
1
1
0
0
0
0
0
0
0
0
0
0
0
0
0
0
0
0
0
0
0
0
0
0
0
0
0
0
0
0
0
0
0
0
0
1
1
0
0
0
0
0
0
0
0
0
0
0
0
0
0
0
0
0
0
0
0
1
1
0
0
0
0
0
0
0
0
0
0
0
0
0
0
0
0
0
0
0
0
0
0
0
0
0
0
0
0
0
0
0
0
0
1
1
0
0
0
0
0
0
0
0
0
0
0
0
0
0
0
0
0
0
0
0
1
1
0
0
0
0
0
0
0
0
0
0
0
0
0
0
0
0
0
0
0
0
0
0
0
0
0
0
0
0
0
0
0
0
0
1
1
0
0
0
0
0
0
0
0
0
0
0
0
0
0
0
0
0
0
0
0
1
1
0
0
0
0
0
0
0
0
0
0
0
0
0
0
0
0
0
0
0
0
0
0
0
0
0
0
0
0
0
0
0
0
0
1
1
0
0
0
0
0
0
0
0
0
0
0
0
0
0
0
0
0
0
0
0
1
1
0
0
0
0
0
0
0
0
0
0
0
0
0
0
0
0
0
0
0
0
0
0
0
0
0
0
0
0
0
0
0
0
0
1
1
0
0
0
0
0
0
0
0
0
0
0
0
0
0
0
0
0
0
0
0
1
1
0
0
0
0
0
0
0
0
0
0
0
0
0
0
0
0
0
0
0
0
0
0
0
0
0
0
0
0
0
0
0
0
0
1
1
0
0
0
0
0
0
0
0
0
0
0
0
0
0
0
0
0
0
0
0
1
1
0
0
0
0
0
0
0
0
0
0
0
0
0
0
0
0
0
0
0
0
0
0
0
0
0
0
0
0
0
0
0
0
0
1
1
0
0
0
0
0
0
0
0
0
0
0
0
0
0
0
0
0
0
0
0
1
1
0
0
0
0
0
0
0
0
0
0
0
0
0
0
0
0
0
0
0
0
0
0
0
0
0
0
0
0
0
0
0
0
0
1
1
0
0
0
0
0
0
0
0
0
0
0
0
0
0
0
0
0
0
0
0
1
1
0
0
0
0
0
0
0
0
0
0
0
0
0
0
0
0
0
0
0
0
0
0
0
0
0
0
0
0
0
0
0
0
0
1
1
0
0
0
0
0
0
0
0
0
0
0
0
0
0
0
0
0
0
0
0
0
1
1
0
0
0
0
0
0
0
0
0
0
0
0
0
0
0
0
0
0
0
0
0
0
0
0
0
0
0
0
0
0
0
0
0
0
1
1
0
0
0
0
0
0
0
0
0
0
0
0
0
0
0
0
0
0
0
0
0
0
0
0
0
0
0
0
0
0
0
0
0
0
0
0
0
0
0
0
0
0
0
0
0
0
0
0
0
0
0
0
0
0
0
0
0
1
1
0
0
0
0
0
0
0
0
0
0
0
0
0
0
0
0
0
0
0
0
0
0
0
0
0
0
0
0
0
0
0
0
0
0
0
0
0
0
0
0
0
0
0
0
0
0
0
0
0
0
0
0
0
0
0
0
0
1
1
0
0
0
0
0
0
0
0
0
0
0
0
0
0
0
0
0
0
0
0
0
0
0
0
0
0
0
0
0
0
0
0
0
0
0
0
0
0
0
0
0
0
0
0
0
0
0
0
0
0
0
0
0
0
0
0
0
1
1
0
0
0
0
0
0
0
0
0
0
0
0
0
0
0
0
0
0
0
0
0
0
0
0
0
0
0
0
0
0
0
0
0
0
0
0
0
0
0
0
0
0
0
0
0
0
0
0
0
0
0
0
0
0
0
0
0
1
1
0
0
0
0
0
0
0
0
0
0
0
0
0
0
0
0
0
0
0
0
0
0
0
0
0
0
0
0
0
0
0
0
0
0
0
0
0
0
0
0
0
0
0
0
0
0
0
0
0
0
0
0
0
0
0
0
0
1
1
0
0
0
0
0
0
0
0
0
0
0
0
0
0
0
0
0
0
0
0
0
0
0
0
0
0
0
0
0
0
0
0
0
0
0
0
0
0
0
0
0
0
0
0
0
0
0
0
0
0
0
0
0
0
0
0
0
1
1
0
0
0
0
0
0
0
0
0
0
0
0
0
0
0
0
0
0
0
0
0
0
0
0
0
0
0
0
0
0
0
0
0
0
0
0
0
0
0
0
0
0
0
0
0
0
0
0
0
0
0
0
0
0
0
0
0
1
1
0
0
0
0
0
0
0
0
0
0
0
0
0
0
0
0
0
0
0
0
0
0
0
0
0
0
0
0
0
0
0
0
0
0
0
0
0
0
0
0
0
0
0
0
0
0
0
0
0
0
0
0
0
0
0
0
0
1
1
0
0
0
0
0
0
0
0
0
0
0
0
0
0
0
0
0
0
0
0
0
0
0
0
0
0
0
0
0
0
0
0
0
0
0
0
0
0
0
0
0
0
0
0
0
0
0
0
0
0
0
0
0
0
0
0
0
1
1
0
0
0
0
0
0
0
0
0
0
0
0
0
0
0
0
0
0
0
0
0
0
0
0
0
0
0
0
0
0
0
0
0
0
0
0
0
0
0
0
0
0
0
0
0
0
0
0
0
0
0
0
0
0
0
0
0
1
1
0
0
0
0
0
0
0
0
0
0
0
0
0
0
0
0
0
0
0
0
0
1
1
0
0
0
0
0
0
0
0
0
0
0
0
0
0
0
0
0
0
0
0
0
0
0
0
0
0
0
0
0
0
0
0
0
0
1
1
0
0
0
0
0
0
0
0
0
0
0
0
0
0
0
0
0
0
0
0
1
1
0
0
0
0
0
0
0
0
0
0
0
0
0
0
0
0
0
0
0
0
0
0
0
0
0
0
0
0
0
0
0
0
0
1
1
0
0
0
0
0
0
0
0
0
0
0
0
0
0
0
0
0
0
0
0
1
1
0
0
0
0
0
0
0
0
0
0
0
0
0
0
0
0
0
0
0
0
0
0
0
0
0
0
0
0
0
0
0
0
0
1
1
0
0
0
0
0
0
0
0
0
0
0
0
0
0
0
0
0
0
0
0
1
1
0
0
0
0
0
0
0
0
0
0
0
0
0
0
0
0
0
0
0
0
0
0
0
0
0
0
0
0
0
0
0
0
0
1
1
0
0
0
0
0
0
0
0
0
0
0
0
0
0
0
0
0
0
0
0
1
1
0
0
0
0
0
0
0
0
0
0
0
0
0
0
0
0
0
0
0
0
0
0
0
0
0
0
0
0
0
0
0
0
0
1
1
0
0
0
0
0
0
0
0
0
0
0
0
0
0
0
0
0
0
0
0
1
1
0
0
0
0
0
0
0
0
0
0
0
0
0
0
0
0
0
0
0
0
0
0
0
0
0
0
0
0
0
0
0
0
0
1
1
0
0
0
0
0
0
0
0
0
0
0
0
0
0
0
0
0
0
0
0
1
1
0
0
0
0
0
0
0
0
0
0
0
0
0
0
0
0
0
0
0
0
0
0
0
0
0
0
0
0
0
0
0
0
0
1
1
0
0
0
0
0
0
0
0
0
0
0
0
0
0
0
0
0
0
0
0
1
1
0
0
0
0
0
0
0
0
0
0
0
0
0
0
0
0
0
0
0
0
0
0
0
0
0
0
0
0
0
0
0
0
0
1
1
0
0
0
0
0
0
0
0
0
0
0
0
0
0
0
0
0
0
0
0
1
1
0
0
0
0
0
0
0
0
0
0
0
0
0
0
0
0
0
0
0
0
0
0
0
0
0
0
0
0
0
0
0
0
0
1
1
0
0
0
0
0
0
0
0
0
0
0
0
0
0
0
0
0
0
0
0
1
1
0
0
0
0
0
0
0
0
0
0
0
0
0
0
0
0
0
0
0
0
0
0
0
0
0
0
0
0
0
0
0
0
0
1
1
0
0
0
0
0
0
0
0
0
0
0
0
0
0
0
0
0
0
0
0
1
1
0
0
0
0
0
0
0
0
0
0
0
0
0
0
0
0
0
0
0
0
0
0
0
0
0
0
0
0
0
0
0
0
0
1
1
0
0
0
0
0
0
0
0
0
0
0
0
0
0
0
0
0
0
0
0
1
1
0
0
0
0
0
0
0
0
0
0
0
0
0
0
0
0
0
0
0
0
0
0
0
0
0
0
0
0
0
0
0
0
0
1
1
0
0
0
0
0
0
0
0
0
0
0
0
0
0
0
0
0
0
0
0
1
1
0
0
0
0
0
0
0
0
0
0
0
0
0
0
0
0
0
0
0
0
0
0
0
0
0
0
0
0
0
0
0
0
0
1
1
0
0
0
0
0
0
0
0
0
0
0
0
0
0
0
0
0
0
0
0
1
1
0
0
0
0
0
0
0
0
0
0
0
0
0
0
0
0
0
0
0
0
0
0
0
0
0
0
0
0
0
0
0
0
0
1
1
0
0
0
0
0
0
0
0
0
0
0
0
0
0
0
0
0
0
0
0
1
1
0
0
0
0
0
0
0
0
0
0
0
0
0
0
0
0
0
0
0
0
0
0
0
0
0
0
0
0
0
0
0
0
0
1
1
0
0
0
0
0
0
0
0
0
0
0
0
0
0
0
0
0
0
0
0
1
1
0
0
0
0
0
0
0
0
0
0
0
0
0
0
0
0
0
0
0
0
0
0
0
0
0
0
0
0
0
0
0
0
0
1
1
0
0
0
0
0
0
0
0
0
0
0
0
0
0
0
0
0
0
0
0
1
1
0
0
0
0
0
0
0
0
0
0
0
0
0
0
0
0
0
0
0
0
0
0
0
0
0
0
0
0
0
0
0
0
0
1
1
0
0
0
0
0
0
0
0
0
0
0
0
0
0
0
0
0
0
0
0
1
1
0
0
0
0
0
0
0
0
0
0
0
0
0
0
0
0
0
0
0
0
0
0
0
0
0
0
0
0
0
0
0
0
0
1
1
0
0
0
0
0
0
0
0
0
0
0
0
0
0
0
0
0
0
0
0
1
1
0
0
0
0
0
0
0
0
0
0
0
0
0
0
0
0
0
0
0
0
0
0
0
0
0
0
0
0
0
0
0
0
0
1
1
0
0
0
0
0
0
0
0
0
0
0
0
0
0
0
0
0
0
0
0
1
1
0
0
0
0
0
0
0
0
0
0
0
0
0
0
0
0
0
0
0
0
0
0
0
0
0
0
0
0
0
0
0
0
0
1
1
0
0
0
0
0
0
0
0
0
0
0
0
0
0
0
0
0
0
0
0
1
1
0
0
0
0
0
0
0
0
0
0
0
0
0
0
0
0
0
0
0
0
0
0
0
0
0
0
0
0
0
0
0
0
0
1
1
0
0
0
0
0
0
0
0
0
0
0
0
0
0
0
0
0
0
0
0
1
1
0
0
0
0
0
0
0
0
0
0
0
0
0
0
0
0
0
0
0
0
0
0
0
0
0
0
0
0
0
0
0
0
0
1
1
1
1
1
1
1
1
1
1
1
1
1
1
1
1
1
1
1
1
1
1
1
1
1
1
1
1
1
1
1
1
1
1
1
1
1
1
1
1
1
1
1
1
1
1
1
1
1
1
1
1
1
1
1
1
1
1
				</DataArray>
				<DataArray type="Float64" Name="h" NumberOfComponents="1" Format="ascii">
1.3220894362
1.3223309243
1.3223546090
1.3224005132
1.3224604785
1.3225219724
1.3225681246
1.3225782050
1.3225296853
1.3224008612
1.3221740604
1.3218393770
1.3213974165
1.3208608950
1.3202546392
1.3196136935
1.3189803769
1.3184000375
1.3179164948
1.3175680866
1.3173834505
1.3173834505
1.1239373409
1.1235366390
1.1236057902
1.1237345575
1.1239167263
1.1241431445
1.1244021830
1.1246808186
1.1249647296
1.1252388200
1.1254882516
1.1256983046
1.1258546198
1.1259439079
1.1259535485
1.1258717508
1.1256883335
1.1253948030
1.1249854023
1.1244590378
1.1238209781
1.1230855988
1.1222793677
1.1214427390
1.1206310292
1.1199120731
1.1193594600
1.1190410493
1.1190018057
1.1192455425
1.1197208490
1.1203172130
1.1208823099
1.1212588904
1.1212588904
1.3223309243
1.3225939035
1.3225900741
1.3225792557
1.3225500494
1.3224857820
1.3223653698
1.3221647769
1.3218600677
1.3214309010
1.3208642739
1.3201583289
1.3193247562
1.3183896328
1.3173924240
1.3163831100
1.3154182961
1.3145561788
1.3138514284
1.3133507900
1.3130886019
1.3173834505
1.1235366390
1.1231140071
1.1231862906
1.1233214116
1.1235131643
1.1237524101
1.1240275419
1.1243255751
1.1246322612
1.1249326324
1.1252120658
1.1254561952
1.1256512183
1.1257847126
1.1258453870
1.1258234512
1.1257116996
1.1255059756
1.1252066802
1.1248212168
1.1243661537
1.1238702169
1.1233771150
1.1229465417
1.1226530476
1.1225803414
1.1228096922
1.1234023396
1.1243760848
1.1256825009
1.1271924256
1.1286984550
1.1299463341
1.1306916858
1.1212588904
1.3225221008
1.3227474346
1.3227450348
1.3227366471
1.3227102536
1.3226483924
1.3225291567
1.3223277981
1.3220198843
1.3215848593
1.3210098004
1.3202931826
1.3194472200
1.3184986378
1.3174876098
1.3164648431
1.3154876428
1.3146148438
1.3139016624
1.3133952561
1.3131302255
1.3173796686
1.1232540746
1.1228514901
1.1229252168
1.1230631359
1.1232587021
1.1235023029
1.1237817588
1.1240834555
1.1243924977
1.1246932861
1.1249706095
1.1252095722
1.1253959178
1.1255168657
1.1255608880
1.1255181320
1.1253815812
1.1251476250
1.1248177056
1.1244008991
1.1239161858
1.1233954626
1.1228861952
1.1224519931
1.1221707182
1.1221276860
1.1224028899
1.1230525542
1.1240858733
1.1254440413
1.1269891396
1.1285104827
1.1297579930
1.1304969440
1.1213661656
1.3229103113
1.3230617535
1.3230618050
1.3230574984
1.3230356336
1.3229772423
1.3228588510
1.3226543614
1.3223384091
1.3218900500
1.3212965447
1.3205570409
1.3196848027
1.3187078534
1.3176677943
1.3166168072
1.3156136303
1.3147184174
1.3139875241
1.3134689784
1.3131979424
1.3173580919
1.1226653884
1.1223043914
1.1223811059
1.1225248142
1.1227282672
1.1229808698
1.1232692595
1.1235785243
1.1238924436
1.1241941348
1.1244672045
1.1246957149
1.1248645414
1.1249602545
1.1249709525
1.1248867890
1.1247012905
1.1244121350
1.1240230667
1.1235467355
1.1230071575
1.1224427277
1.1219084762
1.1214757365
1.1212286899
1.1212553877
1.1216327302
1.1224065247
1.1235687657
1.1250403707
1.1266665025
1.1282298234
1.1294870937
1.1302200874
1.1216548652
1.3235102759
1.3235539832
1.3235569028
1.3235571941
1.3235400293
1.3234843752
1.3233646243
1.3231528612
1.3228224976
1.3223521289
1.3217293524
1.3209543319
1.3200418703
1.3190218743
1.3179380092
1.3168445910
1.3158024384
1.3148736306
1.3141161962
1.3135794502
1.3132993925
1.3173288782
1.1217161987
1.1214214309
1.1215027635
1.1216554125
1.1218710259
1.1221374747
1.1224395575
1.1227603583
1.1230816279
1.1233845437
1.1236509589
1.1238634329
1.1240056487
1.1240633700
1.1240243624
1.1238790850
1.1236222418
1.1232538649
1.1227816086
1.1222239318
1.1216127701
1.1209964411
1.1204411736
1.1200292802
1.1198532744
1.1200037011
1.1205510776
1.1215243193
1.1228895464
1.1245386980
1.1262938924
1.1279294161
1.1292114479
1.1299430652
1.1221471636
1.3243411140
1.3242468117
1.3242522138
1.3242561180
1.3242417839
1.3241857674
1.3240599970
1.3238345038
1.3234813777
1.3229788178
1.3223149813
1.3214913966
1.3205248452
1.3194476121
1.3183059471
1.3171568318
1.3160636879
1.3150910141
1.3142989550
1.3137384634
1.3134466137
1.3173076287
1.1203279510
1.1201274926
1.1202152710
1.1203803888
1.1206129432
1.1208986590
1.1212197791
1.1215566282
1.1218881987
1.1221930754
1.1224508298
1.1226421465
1.1227493326
1.1227573857
1.1226540440
1.1224306994
1.1220842572
1.1216186031
1.1210473504
1.1203973874
1.1197116873
1.1190518658
1.1184985001
1.1181470833
1.1180988081
1.1184443583
1.1192424782
1.1204973620
1.1221407299
1.1240287617
1.1259574366
1.1276935697
1.1290160910
1.1297528089
1.1228576222
1.3254236732
1.3251657159
1.3251723263
1.3251771990
1.3251615790
1.3250995070
1.3249603867
1.3247122198
1.3243258955
1.3237794366
1.3230618636
1.3221764253
1.3211422633
1.3199944325
1.3187821489
1.3175654362
1.3164106830
1.3153851577
1.3145514427
1.3139623911
1.3136563323
1.3173155248
1.1184026096
1.1183269118
1.1184233466
1.1186051988
1.1188605061
1.1191721616
1.1195190675
1.1198779852
1.1202244014
1.1205336792
1.1207826510
1.1209498808
1.1210163021
1.1209664392
1.1207886283
1.1204762065
1.1200297401
1.1194589231
1.1187857936
1.1180485788
1.1173044417
1.1166312865
1.1161262224
1.1158984673
1.1160559355
1.1166844695
1.1178233644
1.1194432000
1.1214336594
1.1236112365
1.1257465239
1.1276030043
1.1289770541
1.1297240852
1.1237880397
1.3267781034
1.3263363435
1.3263420333
1.3263436424
1.3263204824
1.3262442174
1.3260819349
1.3257998890
1.3253681088
1.3247648148
1.3239802762
1.3230198223
1.3219052811
1.3206747558
1.3193806674
1.3180862852
1.3168611508
1.3157754782
1.3148944612
1.3142729986
1.3139507857
1.3173799683
1.1158306928
1.1159097310
1.1160176928
1.1162218231
1.1165075195
1.1168540786
1.1172362095
1.1176262674
1.1179954879
1.1183154306
1.1185598289
1.1187050308
1.1187308043
1.1186217579
1.1183677706
1.1179655003
1.1174210130
1.1167521155
1.1159919766
1.1151930917
1.1144296219
1.1137978820
1.1134121733
1.1133937829
1.1138527066
1.1148623217
1.1164330023
1.1184927423
1.1208836322
1.1233823544
1.1257390920
1.1277213056
1.1291488693
1.1299075399
1.1249250091
1.3284209462
1.3277813746
1.3277832907
1.3277760677
1.3277373314
1.3276367275
1.3274394744
1.3271105923
1.3266197820
1.3259459763
1.3250811479
1.3240330785
1.3228265550
1.3215029092
1.3201178597
1.3187379603
1.3174359014
1.3162848302
1.3153525466
1.3146960022
1.3143562709
1.3175329293
1.1125049418
1.1127634082
1.1128868351
1.1131208537
1.1134475519
1.1138417711
1.1142731040
1.1147086259
1.1151145904
1.1154582295
1.1157099177
1.1158438307
1.1158389549
1.1156807496
1.1153618151
1.1148837420
1.1142601393
1.1135193385
1.1127082679
1.1118962429
1.1111764205
1.1106642837
1.1104900241
1.1107828962
1.1116477817
1.1131359736
1.1152188506
1.1177742610
1.1205945199
1.1234207334
1.1259915455
1.1280880282
1.1295602728
1.1303268658
1.1262427494
1.3303627262
1.3295178614
1.3295126299
1.3294900602
1.3294264757
1.3292900353
1.3290447279
1.3286550328
1.3280910075
1.3273329145
1.3263749467
1.3252277183
1.3239192117
1.3224940809
1.3210113143
1.3195406255
1.3181576700
1.3169383145
1.3159527659
1.3152598605
1.3149019433
1.3178096015
1.1083384171
1.1087894047
1.1089338432
1.1092084601
1.1095912343
1.1100515614
1.1105528994
1.1110561255
1.1115217820
1.1119122852
1.1121944500
1.1123403948
1.1123287841
1.1121467674
1.1117909025
1.1112693379
1.1106051947
1.1098395203
1.1090351728
1.1082800489
1.1076870868
1.1073900156
1.1075315408
1.1082425766
1.1096138679
1.1116642724
1.1143171172
1.1173955044
1.1206440453
1.1237766999
1.1265322317
1.1287158478
1.1302141442
1.1309802960
1.1277063723
1.3326068898
1.3315558542
1.3315398274
1.3314949204
1.3313966311
1.3312122858
1.3309054107
1.3304407576
1.3297895195
1.3289339770
1.3278710957
1.3266147094
1.3251962070
1.3236636029
1.3220790266
1.3205150775
1.3190500965
1.3177622073
1.3167236079
1.3159946507
1.3156186833
1.3182471622
1.1032831625
1.1039216992
1.1040949562
1.1044251961
1.1048852709
1.1054379208
1.1060392878
1.1066430335
1.1072032062
1.1076768829
1.1080270831
1.1082239296
1.1082461416
1.1080832785
1.1077369168
1.1072231355
1.1065761677
1.1058514278
1.1051291032
1.1045163714
1.1041453568
1.1041654608
1.1047267842
1.1059541315
1.1079144653
1.1105846753
1.1138335638
1.1174289027
1.1210740043
1.1244673063
1.1273604844
1.1295926704
1.1310917287
1.1318459663
1.1292762341
1.3351486587
1.3338969901
1.3338664907
1.3337922414
1.3336494443
1.3334053096
1.3330237321
1.3324706013
1.3317190662
1.3307541377
1.3295761170
1.3282024419
1.3266679864
1.3250243648
1.3233366098
1.3216799014
1.3201346084
1.3187806331
1.3176915185
1.3169285271
1.3165355353
1.3188811334
1.0973458859
1.0981442783
1.0983572231
1.0987638507
1.0993304686
1.1000115342
1.1007543822
1.1015042176
1.1022076402
1.1028157087
1.1032872421
1.1035902293
1.1037035752
1.1036196655
1.1033457861
1.1029068573
1.1023492493
1.1017436754
1.1011881582
1.1008087778
1.1007550229
1.1011881373
1.1022594666
1.1040795289
1.1066825687
1.1099961725
1.1138317518
1.1179054024
1.1218890799
1.1254789376
1.1284517302
1.1306882193
1.1321600571
1.1328897581
1.1309130283
1.3379745735
1.3365338125
1.3364853857
1.3363752289
1.3361787892
1.3358638823
1.3353955960
1.3347418064
1.3338784106
1.3327938308
1.3314922389
1.3299950477
1.3283410553
1.3265850451
1.3247949479
1.3230481857
1.3214267444
1.3200115968
1.3188768643
1.3180838399
1.3176761131
1.3197418419
1.0905933681
1.0915005354
1.0917681113
1.0922792958
1.0929916921
1.0938490590
1.0947878725
1.0957432258
1.0966529862
1.0974612242
1.0981218747
1.0986003601
1.0988755749
1.0989427715
1.0988151935
1.0985269962
1.0981371057
1.0977317688
1.0974265659
1.0973652626
1.0977120752
1.0986356333
1.1002822042
1.1027404834
1.1060048615
1.1099493320
1.1143289030
1.1188152816
1.1230611542
1.1267735300
1.1297643511
1.1319608400
1.1333784953
1.1340716963
1.1325807122
1.3410633663
1.3394504325
1.3393811168
1.3392293564
1.3389713597
1.3385762308
1.3380110180
1.3372463518
1.3362615678
1.3350490659
1.3336173194
1.3319920168
1.3302159552
1.3283474178
1.3264571514
1.3246246566
1.3229331907
1.3214641193
1.3202911590
1.3194743870
1.3190557535
1.3208512979
1.0831414021
1.0840875220
1.0844301770
1.0850836092
1.0859932516
1.0870882957
1.0882914152
1.0895253010
1.0907173374
1.0918032796
1.0927312118
1.0934633149
1.0939780378
1.0942732680
1.0943681305
1.0943060190
1.0941583818
1.0940267367
1.0940434391
1.0943682645
1.0951772146
1.0966418650
1.0988976595
1.1020053462
1.1059147309
1.1104451562
1.1152995989
1.1201151313
1.1245378362
1.1282971834
1.1312475014
1.1333642518
1.1347046110
1.1353513499
1.1342486294
1.3443861299
1.3426225624
1.3425300096
1.3423320451
1.3420060770
1.3415230730
1.3408526770
1.3399688988
1.3388550683
1.3375080237
1.3359409107
1.3341839932
1.3322843198
1.3303038891
1.3283164221
1.3264035336
1.3246495332
1.3231356300
1.3219340719
1.3211020938
1.3206779856
1.3222195297
1.0751290055
1.0760349085
1.0764813203
1.0773275162
1.0785014732
1.0799112074
1.0814613926
1.0830591952
1.0846192623
1.0860674478
1.0873449388
1.0884100282
1.0892403481
1.0898362224
1.0902225444
1.0904518345
1.0906078450
1.0908068874
1.0911971193
1.0919525607
1.0932581774
1.0952845418
1.0981515801
1.1018877419
1.1063960151
1.1114428947
1.1166861588
1.1217391238
1.1262531496
1.1299893205
1.1328484104
1.1348531723
1.1360985897
1.1366916332
1.1358925441
1.3479065201
1.3460175886
1.3459000658
1.3456524424
1.3452536742
1.3446770356
1.3438952380
1.3428861168
1.3416373750
1.3401505935
1.3384438492
1.3365522319
1.3345273283
1.3324352049
1.3303529552
1.3283646780
1.3265559159
1.3250074710
1.3237891292
1.3229532506
1.3225313843
1.3238415014
1.0666813242
1.0674704420
1.0680626850
1.0691718842
1.0706979780
1.0725182818
1.0745135092
1.0765712700
1.0785909172
1.0804869491
1.0821930230
1.0836634458
1.0848752189
1.0858313707
1.0865627827
1.0871311838
1.0876324911
1.0881973543
1.0889887977
1.0901934601
1.0920028081
1.0945831771
1.0980354924
1.1023533317
1.1073928396
1.1128716427
1.1184105529
1.1236099373
1.1281365863
1.1317895389
1.1345171856
1.1363865092
1.1375253532
1.1380603982
1.1374941064
1.3515818324
1.3495955152
1.3494519234
1.3491523634
1.3486775752
1.3480034240
1.3471059661
1.3459670927
1.3445790418
1.3429482418
1.3410978016
1.3390677976
1.3369146508
1.3347089980
1.3325320290
1.3304712140
1.3286141950
1.3270418288
1.3258208832
1.3249964537
1.3245885218
1.3256958551
1.0578678152
1.0584776397
1.0592805095
1.0607554773
1.0627506661
1.0651016711
1.0676566923
1.0702792811
1.0728513436
1.0752755411
1.0774786115
1.0794120515
1.0810535551
1.0824100251
1.0835191994
1.0844525150
1.0853181476
1.0862607570
1.0874574131
1.0891059437
1.0914022495
1.0945059165
1.0984965219
1.1033317412
1.1088225718
1.1146431479
1.1203859810
1.1256483342
1.1301203661
1.1336426752
1.1362100941
1.1379293672
1.1389557704
1.1394312626
1.1390402769
1.3553629224
1.3533087660
1.3531386236
1.3527859882
1.3522334966
1.3514597123
1.3504440947
1.3491725761
1.3476418316
1.3458629904
1.3438640697
1.3416901290
1.3394026624
1.3370775012
1.3348010425
1.3326657631
1.3307634170
1.3291768051
1.3279703624
1.3271795602
1.3268051690
1.3277437882
1.0486621209
1.0490522543
1.0501740156
1.0521691934
1.0547957503
1.0578302357
1.0610792149
1.0643783415
1.0675919395
1.0706128168
1.0733638193
1.0757969069
1.0778934485
1.0796665908
1.0811625951
1.0824635827
1.0836903147
1.0850012255
1.0865866609
1.0886543264
1.0914027925
1.0949829756
1.0994516946
1.1047308946
1.1105893092
1.1166636394
1.1225264423
1.1277802205
1.1321441165
1.1355015256
1.1378908545
1.1394534024
1.1403664596
1.1407831567
1.1405220316
1.3591938298
1.3571016589
1.3569050708
1.3564992964
1.3558688534
1.3549949254
1.3538601986
1.3524543589
1.3507781214
1.3488468463
1.3466930168
1.3443663791
1.3419335381
1.3394761455
1.3370872936
1.3348670734
1.3329151710
1.3313208851
1.3301499897
1.3294274604
1.3291232505
1.3299316237
1.0389001715
1.0390557409
1.0406914343
1.0434484563
1.0469373320
1.0508525376
1.0549508436
1.0590409192
1.0629744766
1.0666411681
1.0699667772
1.0729097942
1.0754601548
1.0776408185
1.0795089246
1.0811585787
1.0827235290
1.0843756841
1.0863177976
1.0887661117
1.0919202527
1.0959209665
1.1008016041
1.1064494132
1.1125944535
1.1188421659
1.1247526753
1.1299403267
1.1341566959
1.1373273372
1.1395302965
1.1409360238
1.1417387631
1.1420992025
1.1419328142
1.3630118774
1.3609103381
1.3606879636
1.3602300030
1.3595227137
1.3585496351
1.3572962656
1.3557554675
1.3539312561
1.3518423558
1.3495248179
1.3470322915
1.3444360608
1.3418239340
1.3392973366
1.3369676383
1.3349488640
1.3333460556
1.3322366443
1.3316402247
1.3314811637
1.3322006464
1.0282193969
1.0281502326
1.0306740877
1.0345854757
1.0392714600
1.0443194500
1.0494403150
1.0544285984
1.0591386147
1.0634710848
1.0673664927
1.0707988905
1.0737732981
1.0763268269
1.0785301099
1.0804905030
1.0823549324
1.0843081950
1.0865643075
1.0893465267
1.0928539305
1.0972158539
1.1024419621
1.1083864013
1.1147444656
1.1210962121
1.1269957405
1.1320740809
1.1361168237
1.1390896782
1.1411058558
1.1423597515
1.1430580786
1.1433660464
1.1432677740
1.3667470876
1.3646620613
1.3644150862
1.3639068666
1.3631251412
1.3620553688
1.3606852140
1.3590098443
1.3570354609
1.3547828034
1.3522899777
1.3496129756
1.3468264250
1.3440237283
1.3413157610
1.3388294496
1.3367027064
1.3350732046
1.3340542840
1.3336837683
1.3338336955
1.3345065361
1.0159393036
1.0156758228
1.0198467851
1.0255743579
1.0319379089
1.0384279844
1.0447464956
1.0507127274
1.0562159955
1.0611921874
1.0656131911
1.0694797292
1.0728189972
1.0756864456
1.0781683713
1.0803861052
1.0824993923
1.0847048212
1.0872261022
1.0902917003
1.0940984579
1.0987632098
1.1042720504
1.1104479502
1.1169553728
1.1233543025
1.1291979830
1.1341373312
1.1379920170
1.1407649940
1.1426000314
1.1437107181
1.1443124387
1.1445724872
1.1445224969
1.3703217216
1.3682746807
1.3680048071
1.3674492324
1.3665968213
1.3654343664
1.3639508485
1.3621425911
1.3600164840
1.3575933855
1.3549111509
1.3520254190
1.3490112521
1.3459651009
1.3430063113
1.3402804680
1.3379611820
1.3362463174
1.3353364079
1.3353618490
1.3361959745
1.3368629864
1.0007852605
1.0003732981
1.0078205630
1.0164914622
1.0252019813
1.0334767872
1.0411288667
1.0480890969
1.0543374072
1.0598781582
1.0647337327
1.0689421793
1.0725585730
1.0756593721
1.0783473662
1.0807574931
1.0830610861
1.0854647506
1.0881998168
1.0914978358
1.0955516229
1.1004645294
1.1061994286
1.1125502124
1.1191542854
1.1255561570
1.1313121440
1.1360948046
1.1397567803
1.1423348204
1.1439987862
1.1449772996
1.1454913309
1.1457083980
1.1456921263
1.3736507683
1.3716572499
1.3713666997
1.3707676940
1.3698497988
1.3686004493
1.3670089409
1.3650713838
1.3627935194
1.3601938790
1.3573068530
1.3541835303
1.3508940781
1.3475317481
1.3442182117
1.3411148823
1.3384396279
1.3364874569
1.3356430583
1.3363309544
1.3387380118
1.3394362098
0.9802514558
0.9797439991
0.9941309082
1.0076664586
1.0195769494
1.0299210170
1.0389203741
1.0467725994
1.0536230597
1.0595788442
1.0647275522
1.0691502783
1.0729315773
1.0761685143
1.0789790115
1.0815097189
1.0839412727
1.0864877951
1.0893856906
1.0928672204
1.0971193354
1.1022310480
1.1081425643
1.1146208763
1.1212798288
1.1276522903
1.1333004126
1.1379189214
1.1413914524
1.1437848410
1.1452908865
1.1461497233
1.1465855037
1.1467646344
1.1467715231
1.3766433873
1.3747117922
1.3744033125
1.3737658757
1.3727892941
1.3714609078
1.3697692588
1.3677087599
1.3652819550
1.3625021775
1.3593962844
1.3560049350
1.3523848563
1.3486139506
1.3447998184
1.3411006920
1.3377665944
1.3352157070
1.3341678738
1.3358303227
1.3419563390
1.3427174205
0.9503262508
0.9497506847
0.9790979272
1.0002960094
1.0160873315
1.0284411570
1.0385185590
1.0469676064
1.0541543517
1.0602997596
1.0655541458
1.0700360832
1.0738541525
1.0771212861
1.0799665174
1.0825446824
1.0850424452
1.0876783591
1.0906910489
1.0943110196
1.0987176087
1.1039848475
1.1100310555
1.1165985605
1.1232808378
1.1296022000
1.1351323498
1.1395876969
1.1428802738
1.1451032248
1.1464665317
1.1472189485
1.1475860270
1.1477321863
1.1477546759
1.3792056373
1.3773365845
1.3770134424
1.3763436951
1.3753169600
1.3739197768
1.3721389137
1.3699656602
1.3673973444
1.3644391454
1.3611058860
1.3574206389
1.3534149089
1.3491315437
1.3446310483
1.3400151490
1.3354903234
1.3315323857
1.3293240068
1.3319016953
1.3469723792
1.3478235204
0.9179103611
0.9171966191
0.9703040502
0.9988471889
1.0169815309
1.0300749630
1.0403525707
1.0488073183
1.0559234532
1.0619676986
1.0671118705
1.0714876170
1.0752128401
1.0784069867
1.0812038316
1.0837616717
1.0862693471
1.0889465309
1.0920312091
1.0957498288
1.1002726511
1.1056584340
1.1118046941
1.1184314150
1.1251146080
1.1313724364
1.1367829676
1.1410830024
1.1442099439
1.1462795217
1.1475165651
1.1481761324
1.1484839301
1.1486019020
1.1486346497
1.3812448097
1.3794313028
1.3790972403
1.3784023919
1.3773358025
1.3758826217
1.3740270162
1.3717560095
1.3690601010
1.3659338882
1.3623762256
1.3583856740
1.3539553148
1.3490658644
1.3436709544
1.3376745446
1.3308851163
1.3228988621
1.3127786715
1.2980599432
1.2713337450
1.1916354684
1.0722228284
1.0660259964
1.0294674113
1.0013701461
1.0056272276
1.0157113926
1.0262559396
1.0359882315
1.0446329009
1.0521915959
1.0587426520
1.0643834488
1.0692144473
1.0733378652
1.0768599913
1.0798954394
1.0825758431
1.0850582556
1.0875300865
1.0902091611
1.0933303806
1.0971143132
1.1017212050
1.1071947635
1.1134131937
1.1200766059
1.1267462319
1.1329359145
1.1382321480
1.1423901954
1.1453695198
1.1473048306
1.1484328754
1.1490132065
1.1492708941
1.1493652374
1.1494045232
1.3826759755
1.3809044234
1.3805635584
1.3798517622
1.3787572326
1.3772633356
1.3753511347
1.3730027712
1.3702011693
1.3669294004
1.3631690898
1.3588925757
1.3540523468
1.3485651985
1.3422805917
1.3349278121
1.3260174194
1.3146372751
1.2990335157
1.2757354517
1.2378162419
1.1679205510
1.0707898008
1.0645873488
1.0459009769
1.0287362046
1.0253572359
1.0289884571
1.0354053562
1.0426090330
1.0496826973
1.0562170513
1.0620533256
1.0671609283
1.0715740976
1.0753621255
1.0786151568
1.0814390475
1.0839600764
1.0863313803
1.0887366474
1.0913898730
1.0945212636
1.0983444705
1.1030095304
1.1085459930
1.1148147556
1.1214987552
1.1281469907
1.1342703505
1.1394632154
1.1434968931
1.1463494134
1.1481710080
1.1492077766
1.1497223824
1.1499388367
1.1500138798
1.1500571659
1.3834292010
1.3816812359
1.3813379020
1.3806179716
1.3795086491
1.3779913586
1.3760439443
1.3736436585
1.3707660813
1.3673834231
1.3634615439
1.3589496522
1.3537662113
1.3477784405
1.3407639992
1.3323520930
1.3219287005
1.3084735288
1.2903110981
1.2647966738
1.2281881506
1.1756193430
1.1151415455
1.0878398552
1.0663067162
1.0499359466
1.0423024120
1.0413341510
1.0442984247
1.0491834114
1.0547355278
1.0602442301
1.0653498755
1.0699051921
1.0738818303
1.0773173699
1.0802860699
1.0828847892
1.0852338581
1.0874817052
1.0898074519
1.0924204621
1.0955456684
1.0993897220
1.1040931352
1.1096729645
1.1159753906
1.1226691748
1.1292935776
1.1353575538
1.1404623627
1.1443925739
1.1471411763
1.1488706125
1.1498340774
1.1502963056
1.1504801180
1.1505399785
1.1505855735
1.3834561491
1.3817111115
1.3813696306
1.3806505994
1.3795402107
1.3780180193
1.3760589349
1.3736358386
1.3707180108
1.3672686715
1.3632411400
1.3585670997
1.3531408715
1.3467978259
1.3392763003
1.3301651777
1.3188332132
1.3043310301
1.2853001203
1.2599885941
1.2266346145
1.1845133702
1.1395053987
1.1077590292
1.0836119360
1.0659804688
1.0556199657
1.0515252973
1.0518587393
1.0548348420
1.0590846179
1.0637043208
1.0681760115
1.0722518060
1.0758480214
1.0789746408
1.0816926383
1.0840915568
1.0862867702
1.0884225454
1.0906737938
1.0932455464
1.0963579096
1.1002114300
1.1049386889
1.1105467065
1.1168701452
1.1235669186
1.1301690583
1.1361843635
1.1412196167
1.1450695979
1.1477385775
1.1493980280
1.1503062281
1.1507292116
1.1508886968
1.1509373001
1.1509840910
1.3827366573
1.3809742707
1.3806387155
1.3799293479
1.3788314451
1.3773230187
1.3753764810
1.3729614374
1.3700425091
1.3665764500
1.3625080863
1.3577578937
1.3522058495
1.3456704518
1.3378732546
1.3283950088
1.3166271077
1.3017210714
1.2825882605
1.2580507597
1.2273105462
1.1909052223
1.1529416381
1.1211126206
1.0957694615
1.0769480031
1.0648398256
1.0587563226
1.0573102317
1.0589231749
1.0622148880
1.0661777000
1.0701862402
1.0739166910
1.0772415033
1.0801486247
1.0826886719
1.0849457197
1.0870315039
1.0890872092
1.0912846040
1.0938254955
1.0969264636
1.1007837068
1.1055242862
1.1111483603
1.1174828272
1.1241783992
1.1307624414
1.1367422175
1.1417284331
1.1455228398
1.1481372715
1.1497491518
1.1506200157
1.1510166169
1.1511598150
1.1512009096
1.1512481375
1.3812821886
1.3794847855
1.3791587937
1.3784671810
1.3773945388
1.3759176182
1.3740073044
1.3716309333
1.3687503962
1.3653194991
1.3612785186
1.3565429098
1.3509869024
1.3444233009
1.3365699671
1.3270109416
1.3151591719
1.3002276359
1.2812652892
1.2573504724
1.2280552482
1.1942470543
1.1591798780
1.1278487325
1.1021235770
1.0826695170
1.0696652476
1.0625596632
1.0601683066
1.0610339843
1.0637936825
1.0673959464
1.0711593550
1.0747160685
1.0779111618
1.0807177925
1.0831790846
1.0853749794
1.0874145523
1.0894369778
1.0916122507
1.0941405675