<VTKFile type="UnstructuredGrid" version="0.1">
	<UnstructuredGrid>
		<Piece NumberOfPoints="13548" NumberOfCells="3387">
			<CellData>
				<DataArray type="Int32" Name="ghost" NumberOfComponents="1" Format="ascii">
1
1
1
1
1
1
1
1
1
1
1
1
1
1
1
1
1
1
1
1
1
1
1
1
1
1
1
1
1
1
1
1
1
1
1
1
1
1
1
1
1
1
1
1
1
1
1
1
1
1
1
1
1
1
1
1
1
1
0
0
0
0
0
0
0
0
0
0
0
0
0
0
0
0
0
0
0
0
1
1
0
0
0
0
0
0
0
0
0
0
0
0
0
0
0
0
0
0
0
0
0
0
0
0
0
0
0
0
0
0
0
0
0
1
1
0
0
0
0
0
0
0
0
0
0
0
0
0
0
0
0
0
0
0
0
1
1
0
0
0
0
0
0
0
0
0
0
0
0
0
0
0
0
0
0
0
0
0
0
0
0
0
0
0
0
0
0
0
0
0
1
1
0
0
0
0
0
0
0
0
0
0
0
0
0
0
0
0
0
0
0
0
1
1
0
0
0
0
0
0
0
0
0
0
0
0
0
0
0
0
0
0
0
0
0
0
0
0
0
0
0
0
0
0
0
0
0
1
1
0
0
0
0
0
0
0
0
0
0
0
0
0
0
0
0
0
0
0
0
1
1
0
0
0
0
0
0
0
0
0
0
0
0
0
0
0
0
0
0
0
0
0
0
0
0
0
0
0
0
0
0
0
0
0
1
1
0
0
0
0
0
0
0
0
0
0
0
0
0
0
0
0
0
0
0
0
1
1
0
0
0
0
0
0
0
0
0
0
0
0
0
0
0
0
0
0
0
0
0
0
0
0
0
0
0
0
0
0
0
0
0
1
1
0
0
0
0
0
0
0
0
0
0
0
0
0
0
0
0
0
0
0
0
1
1
0
0
0
0
0
0
0
0
0
0
0
0
0
0
0
0
0
0
0
0
0
0
0
0
0
0
0
0
0
0
0
0
0
1
1
0
0
0
0
0
0
0
0
0
0
0
0
0
0
0
0
0
0
0
0
1
1
0
0
0
0
0
0
0
0
0
0
0
0
0
0
0
0
0
0
0
0
0
0
0
0
0
0
0
0
0
0
0
0
0
1
1
0
0
0
0
0
0
0
0
0
0
0
0
0
0
0
0
0
0
0
0
1
1
0
0
0
0
0
0
0
0
0
0
0
0
0
0
0
0
0
0
0
0
0
0
0
0
0
0
0
0
0
0
0
0
0
1
1
0
0
0
0
0
0
0
0
0
0
0
0
0
0
0
0
0
0
0
0
1
1
0
0
0
0
0
0
0
0
0
0
0
0
0
0
0
0
0
0
0
0
0
0
0
0
0
0
0
0
0
0
0
0
0
1
1
0
0
0
0
0
0
0
0
0
0
0
0
0
0
0
0
0
0
0
0
1
1
0
0
0
0
0
0
0
0
0
0
0
0
0
0
0
0
0
0
0
0
0
0
0
0
0
0
0
0
0
0
0
0
0
1
1
0
0
0
0
0
0
0
0
0
0
0
0
0
0
0
0
0
0
0
0
1
1
0
0
0
0
0
0
0
0
0
0
0
0
0
0
0
0
0
0
0
0
0
0
0
0
0
0
0
0
0
0
0
0
0
1
1
0
0
0
0
0
0
0
0
0
0
0
0
0
0
0
0
0
0
0
0
1
1
0
0
0
0
0
0
0
0
0
0
0
0
0
0
0
0
0
0
0
0
0
0
0
0
0
0
0
0
0
0
0
0
0
1
1
0
0
0
0
0
0
0
0
0
0
0
0
0
0
0
0
0
0
0
0
1
1
0
0
0
0
0
0
0
0
0
0
0
0
0
0
0
0
0
0
0
0
0
0
0
0
0
0
0
0
0
0
0
0
0
1
1
0
0
0
0
0
0
0
0
0
0
0
0
0
0
0
0
0
0
0
0
1
1
0
0
0
0
0
0
0
0
0
0
0
0
0
0
0
0
0
0
0
0
0
0
0
0
0
0
0
0
0
0
0
0
0
1
1
0
0
0
0
0
0
0
0
0
0
0
0
0
0
0
0
0
0
0
0
1
1
0
0
0
0
0
0
0
0
0
0
0
0
0
0
0
0
0
0
0
0
0
0
0
0
0
0
0
0
0
0
0
0
0
1
1
0
0
0
0
0
0
0
0
0
0
0
0
0
0
0
0
0
0
0
0
1
1
0
0
0
0
0
0
0
0
0
0
0
0
0
0
0
0
0
0
0
0
0
0
0
0
0
0
0
0
0
0
0
0
0
1
1
0
0
0
0
0
0
0
0
0
0
0
0
0
0
0
0
0
0
0
0
1
1
0
0
0
0
0
0
0
0
0
0
0
0
0
0
0
0
0
0
0
0
0
0
0
0
0
0
0
0
0
0
0
0
0
1
1
0
0
0
0
0
0
0
0
0
0
0
0
0
0
0
0
0
0
0
0
1
1
0
0
0
0
0
0
0
0
0
0
0
0
0
0
0
0
0
0
0
0
0
0
0
0
0
0
0
0
0
0
0
0
0
1
1
0
0
0
0
0
0
0
0
0
0
0
0
0
0
0
0
0
0
0
0
1
1
0
0
0
0
0
0
0
0
0
0
0
0
0
0
0
0
0
0
0
0
0
0
0
0
0
0
0
0
0
0
0
0
0
1
1
0
0
0
0
0
0
0
0
0
0
0
0
0
0
0
0
0
0
0
0
1
1
0
0
0
0
0
0
0
0
0
0
0
0
0
0
0
0
0
0
0
0
0
0
0
0
0
0
0
0
0
0
0
0
0
1
1
0
0
0
0
0
0
0
0
0
0
0
0
0
0
0
0
0
0
0
0
1
1
0
0
0
0
0
0
0
0
0
0
0
0
0
0
0
0
0
0
0
0
0
0
0
0
0
0
0
0
0
0
0
0
0
1
1
0
0
0
0
0
0
0
0
0
0
0
0
0
0
0
0
0
0
0
0
1
1
0
0
0
0
0
0
0
0
0
0
0
0
0
0
0
0
0
0
0
0
0
0
0
0
0
0
0
0
0
0
0
0
0
1
1
0
0
0
0
0
0
0
0
0
0
0
0
0
0
0
0
0
0
0
0
1
1
0
0
0
0
0
0
0
0
0
0
0
0
0
0
0
0
0
0
0
0
0
0
0
0
0
0
0
0
0
0
0
0
0
1
1
0
0
0
0
0
0
0
0
0
0
0
0
0
0
0
0
0
0
0
0
1
1
0
0
0
0
0
0
0
0
0
0
0
0
0
0
0
0
0
0
0
0
0
0
0
0
0
0
0
0
0
0
0
0
0
1
1
0
0
0
0
0
0
0
0
0
0
0
0
0
0
0
0
0
0
0
0
0
1
1
0
0
0
0
0
0
0
0
0
0
0
0
0
0
0
0
0
0
0
0
0
0
0
0
0
0
0
0
0
0
0
0
0
0
1
1
0
0
0
0
0
0
0
0
0
0
0
0
0
0
0
0
0
0
0
0
0
0
0
0
0
0
0
0
0
0
0
0
0
0
0
0
0
0
0
0
0
0
0
0
0
0
0
0
0
0
0
0
0
0
0
0
0
1
1
0
0
0
0
0
0
0
0
0
0
0
0
0
0
0
0
0
0
0
0
0
0
0
0
0
0
0
0
0
0
0
0
0
0
0
0
0
0
0
0
0
0
0
0
0
0
0
0
0
0
0
0
0
0
0
0
0
1
1
0
0
0
0
0
0
0
0
0
0
0
0
0
0
0
0
0
0
0
0
0
0
0
0
0
0
0
0
0
0
0
0
0
0
0
0
0
0
0
0
0
0
0
0
0
0
0
0
0
0
0
0
0
0
0
0
0
1
1
0
0
0
0
0
0
0
0
0
0
0
0
0
0
0
0
0
0
0
0
0
0
0
0
0
0
0
0
0
0
0
0
0
0
0
0
0
0
0
0
0
0
0
0
0
0
0
0
0
0
0
0
0
0
0
0
0
1
1
0
0
0
0
0
0
0
0
0
0
0
0
0
0
0
0
0
0
0
0
0
0
0
0
0
0
0
0
0
0
0
0
0
0
0
0
0
0
0
0
0
0
0
0
0
0
0
0
0
0
0
0
0
0
0
0
0
1
1
0
0
0
0
0
0
0
0
0
0
0
0
0
0
0
0
0
0
0
0
0
0
0
0
0
0
0
0
0
0
0
0
0
0
0
0
0
0
0
0
0
0
0
0
0
0
0
0
0
0
0
0
0
0
0
0
0
1
1
0
0
0
0
0
0
0
0
0
0
0
0
0
0
0
0
0
0
0
0
0
0
0
0
0
0
0
0
0
0
0
0
0
0
0
0
0
0
0
0
0
0
0
0
0
0
0
0
0
0
0
0
0
0
0
0
0
1
1
0
0
0
0
0
0
0
0
0
0
0
0
0
0
0
0
0
0
0
0
0
0
0
0
0
0
0
0
0
0
0
0
0
0
0
0
0
0
0
0
0
0
0
0
0
0
0
0
0
0
0
0
0
0
0
0
0
1
1
0
0
0
0
0
0
0
0
0
0
0
0
0
0
0
0
0
0
0
0
0
0
0
0
0
0
0
0
0
0
0
0
0
0
0
0
0
0
0
0
0
0
0
0
0
0
0
0
0
0
0
0
0
0
0
0
0
1
1
0
0
0
0
0
0
0
0
0
0
0
0
0
0
0
0
0
0
0
0
0
0
0
0
0
0
0
0
0
0
0
0
0
0
0
0
0
0
0
0
0
0
0
0
0
0
0
0
0
0
0
0
0
0
0
0
0
1
1
0
0
0
0
0
0
0
0
0
0
0
0
0
0
0
0
0
0
0
0
0
1
1
0
0
0
0
0
0
0
0
0
0
0
0
0
0
0
0
0
0
0
0
0
0
0
0
0
0
0
0
0
0
0
0
0
0
1
1
0
0
0
0
0
0
0
0
0
0
0
0
0
0
0
0
0
0
0
0
1
1
0
0
0
0
0
0
0
0
0
0
0
0
0
0
0
0
0
0
0
0
0
0
0
0
0
0
0
0
0
0
0
0
0
1
1
0
0
0
0
0
0
0
0
0
0
0
0
0
0
0
0
0
0
0
0
1
1
0
0
0
0
0
0
0
0
0
0
0
0
0
0
0
0
0
0
0
0
0
0
0
0
0
0
0
0
0
0
0
0
0
1
1
0
0
0
0
0
0
0
0
0
0
0
0
0
0
0
0
0
0
0
0
1
1
0
0
0
0
0
0
0
0
0
0
0
0
0
0
0
0
0
0
0
0
0
0
0
0
0
0
0
0
0
0
0
0
0
1
1
0
0
0
0
0
0
0
0
0
0
0
0
0
0
0
0
0
0
0
0
1
1
0
0
0
0
0
0
0
0
0
0
0
0
0
0
0
0
0
0
0
0
0
0
0
0
0
0
0
0
0
0
0
0
0
1
1
0
0
0
0
0
0
0
0
0
0
0
0
0
0
0
0
0
0
0
0
1
1
0
0
0
0
0
0
0
0
0
0
0
0
0
0
0
0
0
0
0
0
0
0
0
0
0
0
0
0
0
0
0
0
0
1
1
0
0
0
0
0
0
0
0
0
0
0
0
0
0
0
0
0
0
0
0
1
1
0
0
0
0
0
0
0
0
0
0
0
0
0
0
0
0
0
0
0
0
0
0
0
0
0
0
0
0
0
0
0
0
0
1
1
0
0
0
0
0
0
0
0
0
0
0
0
0
0
0
0
0
0
0
0
1
1
0
0
0
0
0
0
0
0
0
0
0
0
0
0
0
0
0
0
0
0
0
0
0
0
0
0
0
0
0
0
0
0
0
1
1
0
0
0
0
0
0
0
0
0
0
0
0
0
0
0
0
0
0
0
0
1
1
0
0
0
0
0
0
0
0
0
0
0
0
0
0
0
0
0
0
0
0
0
0
0
0
0
0
0
0
0
0
0
0
0
1
1
0
0
0
0
0
0
0
0
0
0
0
0
0
0
0
0
0
0
0
0
1
1
0
0
0
0
0
0
0
0
0
0
0
0
0
0
0
0
0
0
0
0
0
0
0
0
0
0
0
0
0
0
0
0
0
1
1
0
0
0
0
0
0
0
0
0
0
0
0
0
0
0
0
0
0
0
0
1
1
0
0
0
0
0
0
0
0
0
0
0
0
0
0
0
0
0
0
0
0
0
0
0
0
0
0
0
0
0
0
0
0
0
1
1
0
0
0
0
0
0
0
0
0
0
0
0
0
0
0
0
0
0
0
0
1
1
0
0
0
0
0
0
0
0
0
0
0
0
0
0
0
0
0
0
0
0
0
0
0
0
0
0
0
0
0
0
0
0
0
1
1
0
0
0
0
0
0
0
0
0
0
0
0
0
0
0
0
0
0
0
0
1
1
0
0
0
0
0
0
0
0
0
0
0
0
0
0
0
0
0
0
0
0
0
0
0
0
0
0
0
0
0
0
0
0
0
1
1
0
0
0
0
0
0
0
0
0
0
0
0
0
0
0
0
0
0
0
0
1
1
0
0
0
0
0
0
0
0
0
0
0
0
0
0
0
0
0
0
0
0
0
0
0
0
0
0
0
0
0
0
0
0
0
1
1
0
0
0
0
0
0
0
0
0
0
0
0
0
0
0
0
0
0
0
0
1
1
0
0
0
0
0
0
0
0
0
0
0
0
0
0
0
0
0
0
0
0
0
0
0
0
0
0
0
0
0
0
0
0
0
1
1
0
0
0
0
0
0
0
0
0
0
0
0
0
0
0
0
0
0
0
0
1
1
0
0
0
0
0
0
0
0
0
0
0
0
0
0
0
0
0
0
0
0
0
0
0
0
0
0
0
0
0
0
0
0
0
1
1
0
0
0
0
0
0
0
0
0
0
0
0
0
0
0
0
0
0
0
0
1
1
0
0
0
0
0
0
0
0
0
0
0
0
0
0
0
0
0
0
0
0
0
0
0
0
0
0
0
0
0
0
0
0
0
1
1
0
0
0
0
0
0
0
0
0
0
0
0
0
0
0
0
0
0
0
0
1
1
0
0
0
0
0
0
0
0
0
0
0
0
0
0
0
0
0
0
0
0
0
0
0
0
0
0
0
0
0
0
0
0
0
1
1
0
0
0
0
0
0
0
0
0
0
0
0
0
0
0
0
0
0
0
0
1
1
0
0
0
0
0
0
0
0
0
0
0
0
0
0
0
0
0
0
0
0
0
0
0
0
0
0
0
0
0
0
0
0
0
1
1
0
0
0
0
0
0
0
0
0
0
0
0
0
0
0
0
0
0
0
0
1
1
0
0
0
0
0
0
0
0
0
0
0
0
0
0
0
0
0
0
0
0
0
0
0
0
0
0
0
0
0
0
0
0
0
1
1
0
0
0
0
0
0
0
0
0
0
0
0
0
0
0
0
0
0
0
0
1
1
0
0
0
0
0
0
0
0
0
0
0
0
0
0
0
0
0
0
0
0
0
0
0
0
0
0
0
0
0
0
0
0
0
1
1
0
0
0
0
0
0
0
0
0
0
0
0
0
0
0
0
0
0
0
0
1
1
0
0
0
0
0
0
0
0
0
0
0
0
0
0
0
0
0
0
0
0
0
0
0
0
0
0
0
0
0
0
0
0
0
1
1
1
1
1
1
1
1
1
1
1
1
1
1
1
1
1
1
1
1
1
1
1
1
1
1
1
1
1
1
1
1
1
1
1
1
1
1
1
1
1
1
1
1
1
1
1
1
1
1
1
1
1
1
1
1
1
1
				</DataArray>
				<DataArray type="Float64" Name="h" NumberOfComponents="1" Format="ascii">
1.1606709611
1.1621688761
1.1620406309
1.1617883812
1.1614195499
1.1609449201
1.1603782298
1.1597355457
1.1590347154
1.1582947599
1.1575351612
1.1567752647
1.1560337734
1.1553282655
1.1546748009
1.1540876941
1.1535793691
1.1531601861
1.1528384211
1.1526203297
1.1525100548
1.1525100548
1.2540215275
1.2527787902
1.2525703942
1.2521560987
1.2515349092
1.2507057329
1.2496676519
1.2484199257
1.2469625522
1.2452967133
1.2434248962
1.2413513484
1.2390825083
1.2366270759
1.2339961982
1.2312038013
1.2282665949
1.2252040567
1.2220387756
1.2187965036
1.2155060473
1.2121995947
1.2089126430
1.2056835054
1.2025532242
1.1995649584
1.1967628174
1.1941909944
1.1918924966
1.1899074590
1.1882719221
1.1870165789
1.1861653735
1.1857346866
1.1857346866
1.1621688761
1.1636873719
1.1635576671
1.1633024008
1.1629289018
1.1624478412
1.1618728576
1.1612199677
1.1605070439
1.1597532337
1.1589782620
1.1582018316
1.1574431076
1.1567202104
1.1560497900
1.1554467678
1.1549241530
1.1544928399
1.1541615640
1.1539369378
1.1538233495
1.1525100548
1.2527787902
1.2514649931
1.2512636867
1.2508633031
1.2502627340
1.2494606954
1.2484559875
1.2472474989
1.2458347516
1.2442183448
1.2424000990
1.2403835198
1.2381742508
1.2357801868
1.2332116801
1.2304818943
1.2276068356
1.2246053346
1.2214993825
1.2183141756
1.2150779898
1.2118225018
1.2085827232
1.2053965283
1.2023045853
1.1993497846
1.1965761171
1.1940278390
1.1917481940
1.1897777184
1.1881529686
1.1869051776
1.1860587879
1.1856305610
1.1857346866
1.1624219263
1.1639346624
1.1638044578
1.1635481957
1.1631731989
1.1626901328
1.1621126354
1.1614567313
1.1607403146
1.1599825733
1.1592032949
1.1584222697
1.1576587753
1.1569310665
1.1562559444
1.1556484909
1.1551218766
1.1546871489
1.1543531785
1.1541266888
1.1540121457
1.1527153903
1.2524805181
1.2511846385
1.2509839437
1.2505848222
1.2499862612
1.2491871070
1.2481863124
1.2469829267
1.2455766232
1.2439681254
1.2421593354
1.2401537838
1.2379570708
1.2355769755
1.2330236633
1.2303100456
1.2274518244
1.2244674935
1.2213786921
1.2182102732
1.2149901971
1.2117498699
1.2085240899
1.2053505911
1.2022699597
1.1993250624
1.1965599142
1.1940188295
1.1917451308
1.1897794419
1.1881584061
1.1869133321
1.1860687241
1.1856413868
1.1857415176
1.1629268025
1.1644280101
1.1642967753
1.1640384624
1.1636603841
1.1631731996
1.1625905513
1.1619284874
1.1612049541
1.1604392289
1.1596512320
1.1588609338
1.1580878385
1.1573504694
1.1566659268
1.1560496088
1.1555150038
1.1550734599
1.1547341147
1.1545039092
1.1543874629
1.1531232647
1.2518802847
1.2506190328
1.2504197745
1.2500235882
1.2494296241
1.2486369508
1.2476447804
1.2464524337
1.2450598368
1.2434679154
1.2416786957
1.2396957274
1.2375245043
1.2351725661
1.2326497070
1.2299683451
1.2271435943
1.2241932983
1.2211384206
1.2180031546
1.2148148586
1.2116044255
1.2084062556
1.2052578053
1.2021994985
1.1992741521
1.1965258256
1.1939989458
1.1917369886
1.1897807511
1.1881670471
1.1869273361
1.1860862445
1.1856606626
1.1857527666
1.1636743231
1.1651577029
1.1650247882
1.1647631343
1.1643800491
1.1638861965
1.1632952454
1.1626233025
1.1618884194
1.1611100351
1.1603082943
1.1595034588
1.1587153883
1.1579630181
1.1572639016
1.1566339114
1.1560870116
1.1556349992
1.1552874099
1.1550515101
1.1549321490
1.1537161534
1.2509908092
1.2497795250
1.2495825098
1.2491908896
1.2486040401
1.2478213355
1.2468423430
1.2456667526
1.2442948315
1.2427277729
1.2409677588
1.2390183457
1.2368848565
1.2345744721
1.2320964416
1.2294624662
1.2266868088
1.2237863744
1.2207811511
1.2176943842
1.2145525639
1.2113858432
1.2082280514
1.2051162354
1.2020905820
1.1991938334
1.1964701113
1.1939640054
1.1917192155
1.1897767919
1.1881738001
1.1869419220
1.1861059645
1.1856829460
1.1857629193
1.1646511706
1.1661096920
1.1659742794
1.1657076657
1.1653171724
1.1648134997
1.1642103897
1.1635240720
1.1627727870
1.1619762376
1.1611549136
1.1603295020
1.1595203647
1.1587470043
1.1580275871
1.1573786227
1.1568147090
1.1563482410
1.1559892852
1.1557455427
1.1556221702
1.1544694143
1.2498303661
1.2486824414
1.2484884488
1.2481029639
1.2475256422
1.2467562356
1.2457947463
1.2446413140
1.2432966165
1.2417621622
1.2400403057
1.2381345890
1.2360500966
1.2337935375
1.2313734571
1.2288006390
1.2260882615
1.2232520356
1.2203107131
1.2172863352
1.2142042889
1.2110937850
1.2079879272
1.2049232309
1.2019395771
1.1990796094
1.1963875268
1.1939081266
1.1916853963
1.1897607140
1.1881714717
1.1869496420
1.1861202683
1.1857005367
1.1857641912
1.1658400602
1.1672658373
1.1671269072
1.1668533223
1.1664524573
1.1659351072
1.1653151677
1.1646090916
1.1638354277
1.1630142798
1.1621666314
1.1613137533
1.1604766722
1.1596756234
1.1589295517
1.1582557668
1.1576696601
1.1571843747
1.1568106436
1.1565567156
1.1564281370
1.1553527442
1.2484223971
1.2473487786
1.2471585471
1.2467806756
1.2462151455
1.2454621445
1.2445221727
1.2433958797
1.2420844017
1.2405895884
1.2389139666
1.2370610305
1.2350355572
1.2328436781
1.2304930936
1.2279934967
1.2253567838
1.2225972601
1.2197322205
1.2167822896
1.2137715522
1.2107281109
1.2076842085
1.2046757214
1.2017421651
1.1989260619
1.1962717004
1.1938241240
1.1916276644
1.1897240939
1.1881512006
1.1869413098
1.1861197543
1.1857039258
1.1857470039
1.1672197409
1.1686039930
1.1684603102
1.1681773259
1.1677625321
1.1672269132
1.1665846375
1.1658525219
1.1650495816
1.1641964912
1.1633149039
1.1624268509
1.1615541985
1.1607180859
1.1599384027
1.1592334216
1.1586194869
1.1581106431
1.1577184313
1.1574517704
1.1573166866
1.1563315167
1.2467954706
1.2458042791
1.2456184805
1.2452495585
1.2446978596
1.2439640537
1.2430491852
1.2419544535
1.2406814776
1.2392324531
1.2376100602
1.2358177011
1.2338597745
1.2317417373
1.2294703249
1.2270539978
1.2245032150
1.2218307084
1.2190521433
1.2161865589
1.2132565945
1.2102891041
1.2073153625
1.2043705196
1.2014936749
1.1987272109
1.1961155147
1.1937039085
1.1915371164
1.1896573635
1.1881028954
1.1869064467
1.1860936873
1.1856822500
1.1857004691
1.1687659240
1.1700990481
1.1699491752
1.1696539738
1.1692211467
1.1686619984
1.1679911314
1.1672259086
1.1663860051
1.1654928641
1.1645690039
1.1636374037
1.1627209469
1.1618418448
1.1610210934
1.1602780869
1.1596302822
1.1590927838
1.1586780960
1.1583959465
1.1582529499
1.1573692301
1.2449817368
1.2440780025
1.2438972173
1.2435383943
1.2430022801
1.2422900659
1.2414033725
1.2403439699
1.2391139622
1.2377158722
1.2361524968
1.2344270903
1.2325435999
1.2305067215
1.2283221258
1.2259969325
1.2235400474
1.2209625076
1.2182782251
1.2155045453
1.2126625543
1.2097777560
1.2068803838
1.2040047916
1.2011896282
1.1984771220
1.1959117669
1.1935391918
1.1914045535
1.1895505804
1.1880160285
1.1868340917
1.1860308199
1.1856241183
1.1856132514
1.1704517122
1.1717234612
1.1715657991
1.1712552545
1.1707998619
1.1702114121
1.1695051416
1.1686991769
1.1678140758
1.1668722673
1.1658973385
1.1649134022
1.1639445278
1.1630141543
1.1621445323
1.1613563276
1.1606682690
1.1600966920
1.1596552421
1.1593546272
1.1592021898
1.1584291702
1.2430161982
1.2422017299
1.2420264170
1.2416786004
1.2411594676
1.2404707685
1.2396147246
1.2385936806
1.2374102070
1.2360671134
1.2345672581
1.2329136802
1.2311098002
1.2291594741
1.2270672300
1.2248387680
1.2224813634
1.2200042876
1.2174196280
1.2147429631
1.2119937708
1.2091961589
1.2063792587
1.2035765881
1.2008263265
1.1981705421
1.1956538460
1.1933221978
1.1912212216
1.1893941909
1.1878804180
1.1867135981
1.1859201978
1.1855184226
1.1854744193
1.1722480389
1.1734477869
1.1732806397
1.1729514443
1.1724687095
1.1718449079
1.1710961385
1.1702415354
1.1693027789
1.1683035078
1.1672685766
1.1662234026
1.1651933872
1.1642033277
1.1632768546
1.1624360426
1.1617010524
1.1610896420
1.1606168165
1.1602944904
1.1601309314
1.1594756152
1.2409362159
1.2402096266
1.2400400782
1.2397038571
1.2392026500
1.2385388153
1.2377151987
1.2367347135
1.2356003593
1.2343151723
1.2328819980
1.2313035809
1.2295827352
1.2277224072
1.2257259204
1.2235975055
1.2213427702
1.2189691928
1.2164870092
1.2139099924
1.2112560402
1.2085478300
1.2058133529
1.2030852928
1.2004013551
1.1978034527
1.1953363281
1.1930462951
1.1909794744
1.1891797196
1.1876869366
1.1865353568
1.1857518935
1.1853550755
1.1852742111
1.1741248796
1.1752419725
1.1750636322
1.1747124627
1.1741976026
1.1735324180
1.1727341152
1.1718230897
1.1708223869
1.1697570698
1.1686534385
1.1675383544
1.1664386599
1.1653806009
1.1643892803
1.1634882971
1.1626994072
1.1620420141
1.1615327665
1.1611851041
1.1610085171
1.1604754980
1.2387798426
1.2381367235
1.2379730127
1.2376485741
1.2371656935
1.2365274175
1.2357372519
1.2347986674
1.2337150386
1.2324895455
1.2311249268
1.2296235355
1.2279874943
1.2262187718
1.2243194408
1.2222922380
1.2201411000
1.2178717184
1.2154924998
1.2130154293
1.2104568561
1.2078380586
1.2051858764
1.2025321861
1.1999142347
1.1973737985
1.1949557722
1.1927068486
1.1906736718
1.1889007047
1.1874284774
1.1862917840
1.1855180084
1.1851260204
1.1850050697
1.1760518831
1.1770760479
1.1768848915
1.1765085957
1.1759570880
1.1752448407
1.1743904114
1.1734157032
1.1723453525
1.1712060346
1.1700256356
1.1688325529
1.1676551228
1.1665210749
1.1654570266
1.1644881856
1.1636380661
1.1629279850
1.1623766181
1.1619993991
1.1618075113
1.1613989213
1.2365851099
1.2360183436
1.2358602435
1.2355472517
1.2350824336
1.2344696634
1.2337131700
1.2328169706
1.2317847412
1.2306196954
1.2293243415
1.2279005239
1.2263495748
1.2246724159
1.2228698352
1.2209430709
1.2188944072
1.2167277954
1.2144498761
1.2120709074
1.2096056632
1.2070743089
1.2045023584
1.2019209886
1.1993670299
1.1968821535
1.1945114367
1.1923019803
1.1903009778
1.1885535267
1.1871008053
1.1859781905
1.1852135531
1.1848261166
1.1846625396
1.1779990753
1.1789208531
1.1787154381
1.1783112209
1.1777190681
1.1769547585
1.1760384244
1.1749936977
1.1738469976
1.1726267555
1.1713625289
1.1700842775
1.1688218114
1.1676043007
1.1664598476
1.1654153016
1.1644960865
1.1637257552
1.1631255354
1.1627135596
1.1625034730
1.1622190466
1.2343895751
1.2338897793
1.2337366248
1.2334340252
1.2329861561
1.2323979616
1.2316745044
1.2308203338
1.2298393254
1.2287345747
1.2275081985
1.2261613836
1.2246945521
1.2231075069
1.2213997196
1.2195709417
1.2176218478
1.2155547275
1.2133745381
1.2110899222
1.2087142088
1.2062663983
1.2037708827
1.2012581623
1.1987647105
1.1963321400
1.1940057505
1.1918330850
1.1898619138
1.1881379921
1.1867031655
1.1855934074
1.1848370853
1.1844537835
1.1842458922
1.1799379993
1.1807491698
1.1805283217
1.1800939161
1.1794578895
1.1786374997
1.1776546440
1.1765348614
1.1753064951
1.1739998181
1.1726460734
1.1712767265
1.1699229446
1.1686151893
1.1673829117
1.1662545461
1.1652575368
1.1644180434
1.1637605583
1.1633069809
1.1630747019
1.1629119482
1.2322292303
1.2317853040
1.2316357521
1.2313414554
1.2309083047
1.2303427264
1.2296507838
1.2288375304
1.2279068834
1.2268616056
1.2257032043
1.2244320074
1.2230473872
1.2215479374
1.2199317889
1.2181972288
1.2163433819
1.2143709639
1.2122833928
1.2100878236
1.2077962652
1.2054266216
1.2030022972
1.2005532024
1.1981155230
1.1957308740
1.1934448236
1.1913053974
1.1893609718
1.1876579832
1.1862389609
1.1851404831
1.1843914195
1.1840117166
1.1837588085
1.1818421603
1.1825361306
1.1822990165
1.1818328256
1.1811506691
1.1802714193
1.1792188826
1.1780206300
1.1767070100
1.1753101518
1.1738629164
1.1723981180
1.1709480438
1.1695441538
1.1682169516
1.1669962441
1.1659114955
1.1649918487
1.1642659928
1.1637611995
1.1635007766
1.1634552165
1.2301385843
1.2297383160
1.2295898888
1.2293002174
1.2288780071
1.2283318271
1.2276689694
1.2268948979
1.2260133143
1.2250263329
1.2239345231
1.2227371114
1.2214322290
1.2200171735
1.2184887057
1.2168436525
1.2150796878
1.2131960670
1.2111948308
1.2090817970
1.2068678125
1.2045697932
1.2022102995
1.1998187598
1.1974311650
1.1950891924
1.1928387277
1.1907283179
1.1888069790
1.1871218507
1.1857161627
1.1846271060
1.1838840543
1.1835073169
1.1832097516
1.1836875374
1.1842596606
1.1840058380
1.1835070328
1.1827776040
1.1818381322
1.1807144264
1.1794361573
1.1780356970
1.1765469745
1.1750043139
1.1734416122
1.1718918945
1.1703871366
1.1689583622
1.1676362698
1.1664520947
1.1654382163
1.1646286362
1.1640583444
1.1637602474
1.1638256915
1.2281512853
1.2277819848
1.2276301672
1.2273388718
1.2269215750
1.2263899952
1.2257528683
1.2250158310
1.2241819093
1.2232520476
1.2222254604
1.2210999223
1.2198721417
1.2185379995
1.2170927799
1.2155319679
1.2138518492
1.2120504298
1.2101283782
1.2080905326
1.2059467094
1.2037127038
1.2014109225
1.1990702279
1.1967264697
1.1944214425
1.1922013857
1.1901153935
1.1882131423
1.1865424980
1.1851474086
1.1840656915
1.1833272339
1.1829527171
1.1826118870
1.1854531167
1.1859009131
1.1856303562
1.1850989274
1.1843222768
1.1833227455
1.1821281906
1.1807703987
1.1792837276
1.1777037885
1.1760661357
1.1744053746
1.1727547260
1.1711459590
1.1696097455
1.1681767522
1.1668792344
1.1657526425
1.1648373731
1.1641793622
1.1638272868
1.1639961384
1.2263010764
1.2259501894
1.2257865837
1.2254830758
1.2250613358
1.2245375769
1.2239220141
1.2232198262
1.2224325243
1.2215591216
1.2205968607
1.2195417070
1.2183886954
1.2171319741
1.2157655367
1.2142833995
1.2126804999
1.2109540737
1.2091037490
1.2071334120
1.2050520028
1.2028747955
1.2006232608
1.1983262570
1.1960196609
1.1937454732
1.1915503409
1.1894839360
1.1875966038
1.1859369392
1.1845496128
1.1834730703
1.1827377247
1.1823646613
1.1819829274
1.1871207412
1.1874440270
1.1871571290
1.1865938949
1.1857712819
1.1847134092
1.1834501896
1.1820155038
1.1804456227
1.1787776846
1.1770481920
1.1752919998
1.1735418292
1.1718282451
1.1701802407
1.1686268372
1.1671996289
1.1659359394
1.1648829488
1.1641014150
1.1636657397
1.1639292690
1.2246249049
1.2242805612
1.2240889478
1.2237551744
1.2233146569
1.2227895903
1.2221909512
1.2215220182
1.2207813606
1.2199649023
1.2190670744
1.2180812644
1.2170007907
1.2158182991
1.2145263358
1.2131178104
1.2115867081
1.2099286360
1.2081427938
1.2062323134
1.2042055038
1.2020769802
1.1998680080
1.1976073922
1.1953311538
1.1930816027
1.1909058639
1.1888542191
1.1869776895
1.1853255859
1.1839432846
1.1828698542
1.1821362404
1.1817639464
1.1813445256
1.1886751223
1.1888760405
1.1885735898
1.1879801511
1.1871139844
1.1860009803
1.1846730929
1.1831662597
1.1815185888
1.1797685990
1.1779534645
1.1761078123
1.1742630749
1.1724473618
1.1706861239
1.1690041445
1.1674290959
1.1659967931
1.1647592574
1.1637950823
1.1632189357
1.1635675029
1.2231687252
1.2228201885
1.2225677771
1.2221725218
1.2216918259
1.2211539379
1.2205679251
1.2199321856
1.2192399962
1.2184826085
1.2176507748
1.2167351464
1.2157264363
1.2146160605
1.2133951720
1.2120556322
1.2105904756
1.2089946908
1.2072663694
1.2054083317
1.2034285389
1.2013409941
1.1991670907
1.1969357246
1.1946832042
1.1924522575
1.1902905580
1.1882490370
1.1863793951
1.1847316444
1.1833518445
1.1822796633
1.1815465642
1.1811744532
1.1807212326
1.1901035830
1.1901865355
1.1898696715
1.1892483269
1.1883420454
1.1871784695
1.1857915763
1.1842193370
1.1825016603
1.1806783678
1.1787871244
1.1768619521
1.1749322586
1.1730223360
1.1711517510
1.1693372620
1.1675969476
1.1659575924
1.1644681878
1.1632222638
1.1623906433
1.1628138443
1.2219990810
1.2216370926
1.2212546013
1.2207437548
1.2201918102
1.2196281837
1.2190530049
1.2184541801
1.2178160327
1.2171230127
1.2163611051
1.2155178002
1.2145817227
1.2135423607
1.2123899451
1.2111153905
1.2097111058
1.2081714896
1.2064942167
1.2046816678
1.2027417373
1.2006880892
1.1985423334
1.1963336433
1.1940987432
1.1918808762
1.1897283331
1.1876927285
1.1858264506
1.1841801976
1.1828006847
1.1817281498
1.1809945391
1.1806221283
1.1801393993
1.1913953864
1.1913669095
1.1910370624
1.1903906869
1.1894485825
1.1882401201
1.1868012937
1.1851721257
1.1833943731
1.1815092260
1.1795548713
1.1775646347
1.1755654921
1.1735768178
1.1716098768
1.1696686110
1.1677527660
1.1658656185
1.1640321498
1.1623379032
1.1610069990
1.1614936581
1.2212275377
1.2208445067
1.2201792332
1.2194599499
1.2187954665
1.2181960522
1.2176369812
1.2170860017
1.2165134413
1.2158945179
1.2152095476
1.2144427264
1.2135807944
1.2126121495
1.2115261120
1.2103131348
1.2089651991
1.2074764542
1.2058443463
1.2040711494
1.2021646090
1.2001385212
1.1980147934
1.1958230101
1.1936004201
1.1913908631
1.1892432970
1.1872100429
1.1853441745
1.1836970560
1.1823160281
1.1812418555
1.1805069237
1.1801338392
1.1796260277
1.1925415139
1.1924101204
1.1920689302
1.1914008125
1.1904277850
1.1891809221
1.1876982485
1.1860219127
1.1841956847
1.1822623947
1.1802611196
1.1782249160
1.1761786701
1.1741367051
1.1721005514
1.1700568299
1.1679758353
1.1658133241
1.1635236850
1.1611057492
1.1587363657
1.1592742831
1.2210625236
1.2206525231
1.2193543789
1.2182727906
1.2174519676
1.2168219619
1.2163001065
1.2158200073
1.2153330549
1.2148033670
1.2142055613
1.2135212819
1.2127362220
1.2118384457
1.2108171741
1.2096627502
1.2083671756
1.2069245866
1.2053324909
1.2035932367
1.2017145795
1.1997106595
1.1976038138
1.1954241557
1.1932095419
1.1910044657
1.1888585800
1.1868249163
1.1849572168
1.1833074842
1.1819236384
1.1808469213
1.1801101093
1.1797361000
1.1792075397
1.1935340740
1.1933100716
1.1929592922
1.1922729375
1.1912741958
1.1899958148
1.1884778775
1.1867647854
1.1849026023
1.1829362970
1.1809066183
1.1788475085
1.1767833436
1.1747252737
1.1726667027
1.1705763105
1.1683864911
1.1659749161
1.1631385920
1.1595735881
1.1549386940
1.1555142140
1.2219241609
1.2214827630
1.2187212143
1.2170443102
1.2160537285
1.2154424017
1.2150125539
1.2146460619
1.2142749523
1.2138556361
1.2133582375
1.2127638675
1.2120589594
1.2112325018
1.2102744910
1.2091758394
1.2079289664
1.2065283348
1.2049717544
1.2032618138
1.2014064494
1.1994203081
1.1973262626
1.1951550350
1.1929451486
1.1907417755
1.1885952681
1.1865593469
1.1846883910
1.1830349889
1.1816475839
1.1805678383
1.1798288677
1.1794538184
1.1789085878
1.1943657758
1.1940610850
1.1937024732
1.1930013789
1.1919820983
1.1906790070
1.1891342649
1.1873946671
1.1855089137
1.1835247693
1.1814857950
1.1794287321
1.1773805902
1.1753544246
1.1733435359
1.1713103861
1.1691626567
1.1666988764
1.1634757021
1.1584707772
1.1492265551
1.1498280941
1.2247037849
1.2242277314
1.2179789443
1.2154369254
1.2143990144
1.2139612757
1.2137381560
1.2135581874
1.2133444646
1.2130605521
1.2126782171
1.2121811111
1.2115591090
1.2108038956
1.2099073101
1.2088615162
1.2076598037
1.2062972723
1.2047722489
1.2030877131
1.2012519161
1.1992801493
1.1971958919
1.1950305158
1.1928232284
1.1906198789
1.1884714887
1.1864324247
1.1845576414
1.1829002464
1.1815091348
1.1804263250
1.1796852128
1.1793091514
1.1787509946
1.1950301507
1.1946581001
1.1942933036
1.1935807289
1.1925456997
1.1912241425
1.1896602662
1.1879033419
1.1860049875
1.1840163802
1.1819850781
1.1799528420
1.1779535751
1.1760108254
1.1741363168
1.1723289418
1.1705755570
1.1688609454
1.1672048974
1.1657858934
1.1654418009
1.1731350037
1.1841583574
1.1778200806
1.1970157833
1.2077779042
1.2100785050
1.2111288338
1.2117470553
1.2121611432
1.2124280130
1.2125595654
1.2125590180
1.2124341580
1.2121792494
1.2117843496
1.2112459709
1.2105604212
1.2097224520
1.2087260783
1.2075658392
1.2062376995
1.2047407059
1.2030782756
1.2012591099
1.1992992490
1.1972227996
1.1950617857
1.1928560769
1.1906521591
1.1885016644
1.1864595297
1.1845812034
1.1829202238
1.1815258541
1.1804403924
1.1796974530
1.1793205495
1.1787529010
1.1955211527
1.1950962147
1.1947266792
1.1940054551
1.1929587906
1.1916240366
1.1900473343
1.1882803697
1.1863777248
1.1843942007
1.1823817867
1.1803879575
1.1784543993
1.1766157912
1.1749009683
1.1733363488
1.1719538146
1.1708112602
1.1700379808
1.1699380099
1.1712853854
1.1766361320
1.1834162540
1.1771100330
1.1914466037
1.2006827475
1.2051610049
1.2078225334
1.2095037743
1.2106059417
1.2113254018
1.2117642287
1.2119791828
1.2120115756
1.2118816520
1.2115866013
1.2111282075
1.2105080749
1.2097242827
1.2087729729
1.2076500845
1.2063525594
1.2048803322
1.2032371745
1.2014323570
1.1994827511
1.1974130599
1.1952559131
1.1930517834
1.1908477164
1.1886958637
1.1866516285
1.1847708453
1.1831073784
1.1817107588
1.1806234803
1.1798793076
1.1795018649
1.1789279590
1.1958329805
1.1953704672
1.1949973872
1.1942698126
1.1932147858
1.1918708976
1.1902860005
1.1885139638
1.1866121104
1.1846386529
1.1826497835
1.1806983320
1.1788329933
1.1770977210
1.1755339858
1.1741852826
1.1731051111
1.1723744265
1.1721317917
1.1726247567
1.1743088970
1.1780069917
1.1823604175
1.1830230066
1.1912162656
1.1979950191
1.2025526949
1.2057357158
1.2079583280
1.2095055110
1.2105632518
1.2112529681
1.2116537565
1.2118242401
1.2118041732
1.2115990179
1.2112122293
1.2106502590
1.2099143256
1.2090025837
1.2079123239
1.2066414737
1.2051906683
1.2035641745
1.2017719939
1.1998316796
1.1977684789
1.1956155537
1.1934138825
1.1912109633
1.1890593449
1.1870147658
1.1851333178
1.1834690673
1.1820717000
1.1809838128
1.1802392464
1.1798616842
1.1792847348
1.1959605458
1.1954763030
1.1951006298
1.1943684827
1.1933075370
1.1919573781
1.1903672446
1.1885927949
1.1866936240
1.1847307927
1.1827639899
1.1808504196
1.1790442782
1.1773963141
1.1759563473
1.1747775217
1.1739226011
1.1734767641
1.1735648629
1.1743704797
1.1761494788
1.1791614767
1.1827651872
1.1856443803
1.1914531909
1.1969105731
1.2012499126
1.2045893390
1.2070839683
1.2089031924
1.2101925866
1.2110670304
1.2116114170
1.2118914272
1.2119591072
1.2118279696
1.2115004053
1.2109866762
1.2102905395
1.2094117349
1.2083487358
1.2071003204
1.2056674699
1.2040552444
1.2022743775
1.2003429119
1.1982865502
1.1961388774
1.1939412540
1.1917414936
1.1895923930
1.1875498707
1.1856701278
1.1840072933
1.1826110849
1.1815241015
1.1807801827
1.1804030148
1.1798264478
1.1958989808
1.1954091198
1.1950316125
1.1942962503
1.1932311472
1.1918765793
1.1902827521
1.1885065820
1.1866092776
1.1846539363
1.1827027483
1.1808160176
1.1790517519
1.1774652167
1.1761114418
1.1750490000
1.1743447693
1.1740832995
1.1743760405
1.1753640006
1.1772020911
1.1799747453
1.1833711173
1.1869397000
1.1918164970
1.1966314136
1.2007923968
1.2041776902
1.2068117048
1.2087902142
1.2102255948
1.2112222656
1.2118651083
1.2122217000
1.2123515239
1.2122745380
1.2119908600
1.2115133750
1.2108474346
1.2099938853
1.2089520368
1.2077211784
1.2063027598
1.2047026017
1.2029319546
1.2010092300
1.1989604647
1.1968195380
1.1946280465
1.1924339589
1.1902901497
1.1882525445
1.1863772895
1.1847184261
1.1833255713
1.1822412221
1.1814991349
1.1811229420
1.1805506247
1.1956470509
1.1951681254
1.1947894704
1.1940520737
1.1929842658
1.1916266644
1.1900299586
1.1882517051
1.1863539576
1.1844009114
1.1824561384
1.1805816873
1.1788377377
1.1772821530
1.1759729982
1.1749721107
1.1743491587
1.1741894428
1.1745995088
1.1757031340
1.1776172794
1.1803777424
1.1837910790
1.1876157297
1.1922246624
1.1968329323
1.2009447824
1.2043697565
1.2070817622
1.2091453467
1.2106582238
1.2117202586
1.2124166033
1.2128153554
1.2129800331
1.2129347225
1.2126775027
1.2122224498
1.2115756059
1.2107385786
1.2097109375
1.2084923693