<VTKFile type="UnstructuredGrid" version="0.1">
	<UnstructuredGrid>
		<Piece NumberOfPoints="13548" NumberOfCells="3387">
			<CellData>
				<DataArray type="Int32" Name="ghost" NumberOfComponents="1" Format="ascii">
1
1
1
1
1
1
1
1
1
1
1
1
1
1
1
1
1
1
1
1
1
1
1
1
1
1
1
1
1
1
1
1
1
1
1
1
1
1
1
1
1
1
1
1
1
1
1
1
1
1
1
1
1
1
1
1
1
1
0
0
0
0
0
0
0
0
0
0
0
0
0
0
0
0
0
0
0
0
1
1
0
0
0
0
0
0
0
0
0
0
0
0
0
0
0
0
0
0
0
0
0
0
0
0
0
0
0
0
0
0
0
0
0
1
1
0
0
0
0
0
0
0
0
0
0
0
0
0
0
0
0
0
0
0
0
1
1
0
0
0
0
0
0
0
0
0
0
0
0
0
0
0
0
0
0
0
0
0
0
0
0
0
0
0
0
0
0
0
0
0
1
1
0
0
0
0
0
0
0
0
0
0
0
0
0
0
0
0
0
0
0
0
1
1
0
0
0
0
0
0
0
0
0
0
0
0
0
0
0
0
0
0
0
0
0
0
0
0
0
0
0
0
0
0
0
0
0
1
1
0
0
0
0
0
0
0
0
0
0
0
0
0
0
0
0
0
0
0
0
1
1
0
0
0
0
0
0
0
0
0
0
0
0
0
0
0
0
0
0
0
0
0
0
0
0
0
0
0
0
0
0
0
0
0
1
1
0
0
0
0
0
0
0
0
0
0
0
0
0
0
0
0
0
0
0
0
1
1
0
0
0
0
0
0
0
0
0
0
0
0
0
0
0
0
0
0
0
0
0
0
0
0
0
0
0
0
0
0
0
0
0
1
1
0
0
0
0
0
0
0
0
0
0
0
0
0
0
0
0
0
0
0
0
1
1
0
0
0
0
0
0
0
0
0
0
0
0
0
0
0
0
0
0
0
0
0
0
0
0
0
0
0
0
0
0
0
0
0
1
1
0
0
0
0
0
0
0
0
0
0
0
0
0
0
0
0
0
0
0
0
1
1
0
0
0
0
0
0
0
0
0
0
0
0
0
0
0
0
0
0
0
0
0
0
0
0
0
0
0
0
0
0
0
0
0
1
1
0
0
0
0
0
0
0
0
0
0
0
0
0
0
0
0
0
0
0
0
1
1
0
0
0
0
0
0
0
0
0
0
0
0
0
0
0
0
0
0
0
0
0
0
0
0
0
0
0
0
0
0
0
0
0
1
1
0
0
0
0
0
0
0
0
0
0
0
0
0
0
0
0
0
0
0
0
1
1
0
0
0
0
0
0
0
0
0
0
0
0
0
0
0
0
0
0
0
0
0
0
0
0
0
0
0
0
0
0
0
0
0
1
1
0
0
0
0
0
0
0
0
0
0
0
0
0
0
0
0
0
0
0
0
1
1
0
0
0
0
0
0
0
0
0
0
0
0
0
0
0
0
0
0
0
0
0
0
0
0
0
0
0
0
0
0
0
0
0
1
1
0
0
0
0
0
0
0
0
0
0
0
0
0
0
0
0
0
0
0
0
1
1
0
0
0
0
0
0
0
0
0
0
0
0
0
0
0
0
0
0
0
0
0
0
0
0
0
0
0
0
0
0
0
0
0
1
1
0
0
0
0
0
0
0
0
0
0
0
0
0
0
0
0
0
0
0
0
1
1
0
0
0
0
0
0
0
0
0
0
0
0
0
0
0
0
0
0
0
0
0
0
0
0
0
0
0
0
0
0
0
0
0
1
1
0
0
0
0
0
0
0
0
0
0
0
0
0
0
0
0
0
0
0
0
1
1
0
0
0
0
0
0
0
0
0
0
0
0
0
0
0
0
0
0
0
0
0
0
0
0
0
0
0
0
0
0
0
0
0
1
1
0
0
0
0
0
0
0
0
0
0
0
0
0
0
0
0
0
0
0
0
1
1
0
0
0
0
0
0
0
0
0
0
0
0
0
0
0
0
0
0
0
0
0
0
0
0
0
0
0
0
0
0
0
0
0
1
1
0
0
0
0
0
0
0
0
0
0
0
0
0
0
0
0
0
0
0
0
1
1
0
0
0
0
0
0
0
0
0
0
0
0
0
0
0
0
0
0
0
0
0
0
0
0
0
0
0
0
0
0
0
0
0
1
1
0
0
0
0
0
0
0
0
0
0
0
0
0
0
0
0
0
0
0
0
1
1
0
0
0
0
0
0
0
0
0
0
0
0
0
0
0
0
0
0
0
0
0
0
0
0
0
0
0
0
0
0
0
0
0
1
1
0
0
0
0
0
0
0
0
0
0
0
0
0
0
0
0
0
0
0
0
1
1
0
0
0
0
0
0
0
0
0
0
0
0
0
0
0
0
0
0
0
0
0
0
0
0
0
0
0
0
0
0
0
0
0
1
1
0
0
0
0
0
0
0
0
0
0
0
0
0
0
0
0
0
0
0
0
1
1
0
0
0
0
0
0
0
0
0
0
0
0
0
0
0
0
0
0
0
0
0
0
0
0
0
0
0
0
0
0
0
0
0
1
1
0
0
0
0
0
0
0
0
0
0
0
0
0
0
0
0
0
0
0
0
1
1
0
0
0
0
0
0
0
0
0
0
0
0
0
0
0
0
0
0
0
0
0
0
0
0
0
0
0
0
0
0
0
0
0
1
1
0
0
0
0
0
0
0
0
0
0
0
0
0
0
0
0
0
0
0
0
1
1
0
0
0
0
0
0
0
0
0
0
0
0
0
0
0
0
0
0
0
0
0
0
0
0
0
0
0
0
0
0
0
0
0
1
1
0
0
0
0
0
0
0
0
0
0
0
0
0
0
0
0
0
0
0
0
1
1
0
0
0
0
0
0
0
0
0
0
0
0
0
0
0
0
0
0
0
0
0
0
0
0
0
0
0
0
0
0
0
0
0
1
1
0
0
0
0
0
0
0
0
0
0
0
0
0
0
0
0
0
0
0
0
1
1
0
0
0
0
0
0
0
0
0
0
0
0
0
0
0
0
0
0
0
0
0
0
0
0
0
0
0
0
0
0
0
0
0
1
1
0
0
0
0
0
0
0
0
0
0
0
0
0
0
0
0
0
0
0
0
1
1
0
0
0
0
0
0
0
0
0
0
0
0
0
0
0
0
0
0
0
0
0
0
0
0
0
0
0
0
0
0
0
0
0
1
1
0
0
0
0
0
0
0
0
0
0
0
0
0
0
0
0
0
0
0
0
1
1
0
0
0
0
0
0
0
0
0
0
0
0
0
0
0
0
0
0
0
0
0
0
0
0
0
0
0
0
0
0
0
0
0
1
1
0
0
0
0
0
0
0
0
0
0
0
0
0
0
0
0
0
0
0
0
0
1
1
0
0
0
0
0
0
0
0
0
0
0
0
0
0
0
0
0
0
0
0
0
0
0
0
0
0
0
0
0
0
0
0
0
0
1
1
0
0
0
0
0
0
0
0
0
0
0
0
0
0
0
0
0
0
0
0
0
0
0
0
0
0
0
0
0
0
0
0
0
0
0
0
0
0
0
0
0
0
0
0
0
0
0
0
0
0
0
0
0
0
0
0
0
1
1
0
0
0
0
0
0
0
0
0
0
0
0
0
0
0
0
0
0
0
0
0
0
0
0
0
0
0
0
0
0
0
0
0
0
0
0
0
0
0
0
0
0
0
0
0
0
0
0
0
0
0
0
0
0
0
0
0
1
1
0
0
0
0
0
0
0
0
0
0
0
0
0
0
0
0
0
0
0
0
0
0
0
0
0
0
0
0
0
0
0
0
0
0
0
0
0
0
0
0
0
0
0
0
0
0
0
0
0
0
0
0
0
0
0
0
0
1
1
0
0
0
0
0
0
0
0
0
0
0
0
0
0
0
0
0
0
0
0
0
0
0
0
0
0
0
0
0
0
0
0
0
0
0
0
0
0
0
0
0
0
0
0
0
0
0
0
0
0
0
0
0
0
0
0
0
1
1
0
0
0
0
0
0
0
0
0
0
0
0
0
0
0
0
0
0
0
0
0
0
0
0
0
0
0
0
0
0
0
0
0
0
0
0
0
0
0
0
0
0
0
0
0
0
0
0
0
0
0
0
0
0
0
0
0
1
1
0
0
0
0
0
0
0
0
0
0
0
0
0
0
0
0
0
0
0
0
0
0
0
0
0
0
0
0
0
0
0
0
0
0
0
0
0
0
0
0
0
0
0
0
0
0
0
0
0
0
0
0
0
0
0
0
0
1
1
0
0
0
0
0
0
0
0
0
0
0
0
0
0
0
0
0
0
0
0
0
0
0
0
0
0
0
0
0
0
0
0
0
0
0
0
0
0
0
0
0
0
0
0
0
0
0
0
0
0
0
0
0
0
0
0
0
1
1
0
0
0
0
0
0
0
0
0
0
0
0
0
0
0
0
0
0
0
0
0
0
0
0
0
0
0
0
0
0
0
0
0
0
0
0
0
0
0
0
0
0
0
0
0
0
0
0
0
0
0
0
0
0
0
0
0
1
1
0
0
0
0
0
0
0
0
0
0
0
0
0
0
0
0
0
0
0
0
0
0
0
0
0
0
0
0
0
0
0
0
0
0
0
0
0
0
0
0
0
0
0
0
0
0
0
0
0
0
0
0
0
0
0
0
0
1
1
0
0
0
0
0
0
0
0
0
0
0
0
0
0
0
0
0
0
0
0
0
0
0
0
0
0
0
0
0
0
0
0
0
0
0
0
0
0
0
0
0
0
0
0
0
0
0
0
0
0
0
0
0
0
0
0
0
1
1
0
0
0
0
0
0
0
0
0
0
0
0
0
0
0
0
0
0
0
0
0
1
1
0
0
0
0
0
0
0
0
0
0
0
0
0
0
0
0
0
0
0
0
0
0
0
0
0
0
0
0
0
0
0
0
0
0
1
1
0
0
0
0
0
0
0
0
0
0
0
0
0
0
0
0
0
0
0
0
1
1
0
0
0
0
0
0
0
0
0
0
0
0
0
0
0
0
0
0
0
0
0
0
0
0
0
0
0
0
0
0
0
0
0
1
1
0
0
0
0
0
0
0
0
0
0
0
0
0
0
0
0
0
0
0
0
1
1
0
0
0
0
0
0
0
0
0
0
0
0
0
0
0
0
0
0
0
0
0
0
0
0
0
0
0
0
0
0
0
0
0
1
1
0
0
0
0
0
0
0
0
0
0
0
0
0
0
0
0
0
0
0
0
1
1
0
0
0
0
0
0
0
0
0
0
0
0
0
0
0
0
0
0
0
0
0
0
0
0
0
0
0
0
0
0
0
0
0
1
1
0
0
0
0
0
0
0
0
0
0
0
0
0
0
0
0
0
0
0
0
1
1
0
0
0
0
0
0
0
0
0
0
0
0
0
0
0
0
0
0
0
0
0
0
0
0
0
0
0
0
0
0
0
0
0
1
1
0
0
0
0
0
0
0
0
0
0
0
0
0
0
0
0
0
0
0
0
1
1
0
0
0
0
0
0
0
0
0
0
0
0
0
0
0
0
0
0
0
0
0
0
0
0
0
0
0
0
0
0
0
0
0
1
1
0
0
0
0
0
0
0
0
0
0
0
0
0
0
0
0
0
0
0
0
1
1
0
0
0
0
0
0
0
0
0
0
0
0
0
0
0
0
0
0
0
0
0
0
0
0
0
0
0
0
0
0
0
0
0
1
1
0
0
0
0
0
0
0
0
0
0
0
0
0
0
0
0
0
0
0
0
1
1
0
0
0
0
0
0
0
0
0
0
0
0
0
0
0
0
0
0
0
0
0
0
0
0
0
0
0
0
0
0
0
0
0
1
1
0
0
0
0
0
0
0
0
0
0
0
0
0
0
0
0
0
0
0
0
1
1
0
0
0
0
0
0
0
0
0
0
0
0
0
0
0
0
0
0
0
0
0
0
0
0
0
0
0
0
0
0
0
0
0
1
1
0
0
0
0
0
0
0
0
0
0
0
0
0
0
0
0
0
0
0
0
1
1
0
0
0
0
0
0
0
0
0
0
0
0
0
0
0
0
0
0
0
0
0
0
0
0
0
0
0
0
0
0
0
0
0
1
1
0
0
0
0
0
0
0
0
0
0
0
0
0
0
0
0
0
0
0
0
1
1
0
0
0
0
0
0
0
0
0
0
0
0
0
0
0
0
0
0
0
0
0
0
0
0
0
0
0
0
0
0
0
0
0
1
1
0
0
0
0
0
0
0
0
0
0
0
0
0
0
0
0
0
0
0
0
1
1
0
0
0
0
0
0
0
0
0
0
0
0
0
0
0
0
0
0
0
0
0
0
0
0
0
0
0
0
0
0
0
0
0
1
1
0
0
0
0
0
0
0
0
0
0
0
0
0
0
0
0
0
0
0
0
1
1
0
0
0
0
0
0
0
0
0
0
0
0
0
0
0
0
0
0
0
0
0
0
0
0
0
0
0
0
0
0
0
0
0
1
1
0
0
0
0
0
0
0
0
0
0
0
0
0
0
0
0
0
0
0
0
1
1
0
0
0
0
0
0
0
0
0
0
0
0
0
0
0
0
0
0
0
0
0
0
0
0
0
0
0
0
0
0
0
0
0
1
1
0
0
0
0
0
0
0
0
0
0
0
0
0
0
0
0
0
0
0
0
1
1
0
0
0
0
0
0
0
0
0
0
0
0
0
0
0
0
0
0
0
0
0
0
0
0
0
0
0
0
0
0
0
0
0
1
1
0
0
0
0
0
0
0
0
0
0
0
0
0
0
0
0
0
0
0
0
1
1
0
0
0
0
0
0
0
0
0
0
0
0
0
0
0
0
0
0
0
0
0
0
0
0
0
0
0
0
0
0
0
0
0
1
1
0
0
0
0
0
0
0
0
0
0
0
0
0
0
0
0
0
0
0
0
1
1
0
0
0
0
0
0
0
0
0
0
0
0
0
0
0
0
0
0
0
0
0
0
0
0
0
0
0
0
0
0
0
0
0
1
1
0
0
0
0
0
0
0
0
0
0
0
0
0
0
0
0
0
0
0
0
1
1
0
0
0
0
0
0
0
0
0
0
0
0
0
0
0
0
0
0
0
0
0
0
0
0
0
0
0
0
0
0
0
0
0
1
1
0
0
0
0
0
0
0
0
0
0
0
0
0
0
0
0
0
0
0
0
1
1
0
0
0
0
0
0
0
0
0
0
0
0
0
0
0
0
0
0
0
0
0
0
0
0
0
0
0
0
0
0
0
0
0
1
1
0
0
0
0
0
0
0
0
0
0
0
0
0
0
0
0
0
0
0
0
1
1
0
0
0
0
0
0
0
0
0
0
0
0
0
0
0
0
0
0
0
0
0
0
0
0
0
0
0
0
0
0
0
0
0
1
1
0
0
0
0
0
0
0
0
0
0
0
0
0
0
0
0
0
0
0
0
1
1
0
0
0
0
0
0
0
0
0
0
0
0
0
0
0
0
0
0
0
0
0
0
0
0
0
0
0
0
0
0
0
0
0
1
1
0
0
0
0
0
0
0
0
0
0
0
0
0
0
0
0
0
0
0
0
1
1
0
0
0
0
0
0
0
0
0
0
0
0
0
0
0
0
0
0
0
0
0
0
0
0
0
0
0
0
0
0
0
0
0
1
1
1
1
1
1
1
1
1
1
1
1
1
1
1
1
1
1
1
1
1
1
1
1
1
1
1
1
1
1
1
1
1
1
1
1
1
1
1
1
1
1
1
1
1
1
1
1
1
1
1
1
1
1
1
1
1
1
				</DataArray>
				<DataArray type="Float64" Name="h" NumberOfComponents="1" Format="ascii">
1.2752739812
1.2724883641
1.2724251517
1.2722941128
1.2721018749
1.2718588270
1.2715788140
1.2712787160
1.2709767918
1.2706913907
1.2704394158
1.2702344586
1.2700855713
1.2699961006
1.2699633354
1.2699789860
1.2700299111
1.2701001322
1.2701730709
1.2702333453
1.2702692343
1.2702692343
1.0976945036
1.0968216622
1.0971539653
1.0978374983
1.0989137497
1.1004447416
1.1025119736
1.1052138624
1.1086595837
1.1129590578
1.1182085993
1.1244719741
1.1317583225
1.1400014682
1.1490464764
1.1586484660
1.1684979051
1.1782348011
1.1875029702
1.1960092090
1.2035522317
1.2100349404
1.2154556988
1.2198849791
1.2234368325
1.2262433926
1.2284358284
1.2301318979
1.2314306131
1.2324108488
1.2331325181
1.2336393920
1.2339615741
1.2341177292
1.2341177292
1.2724883641
1.2697439313
1.2697444097
1.2697377245
1.2697252438
1.2697098623
1.2696960597
1.2696899811
1.2696983951
1.2697280530
1.2697848628
1.2698726932
1.2699926622
1.2701423454
1.2703155631
1.2705027187
1.2706911896
1.2708668279
1.2710155697
1.2711246131
1.2711843263
1.2702692343
1.0968216622
1.0959718492
1.0963395675
1.0970962484
1.0982873399
1.0999799542
1.1022606240
1.1052312929
1.1090013177
1.1136752010
1.1193361310
1.1260257589
1.1337222404
1.1423219582
1.1516313007
1.1613825435
1.1712312144
1.1808156378
1.1898067755
1.1979492563
1.2050868240
1.2111644870
1.2162123504
1.2203203170
1.2236099808
1.2262124029
1.2282521237
1.2298378788
1.2310593361
1.2319869768
1.2326738896
1.2331587175
1.2334680034
1.2336181943
1.2341177292
1.2726445982
1.2699104500
1.2699113606
1.2699054884
1.2698939731
1.2698793689
1.2698657206
1.2698586789
1.2698645089
1.2698895111
1.2699392639
1.2700174929
1.2701254113
1.2702609575
1.2704185789
1.2705895329
1.2707622089
1.2709235321
1.2710604658
1.2711610865
1.2712164027
1.2703368248
1.0965795399
1.0957427290
1.0961169589
1.0968866236
1.0980968078
1.0998138406
1.1021226988
1.1051229438
1.1089206117
1.1136158655
1.1192868010
1.1259699551
1.1336395268
1.1421905268
1.1514317717
1.1611021382
1.1708663553
1.1803758482
1.1893118965
1.1974251091
1.2045610458
1.2106616888
1.2157515278
1.2199135051
1.2232628601
1.2259251861
1.2280212007
1.2296571120
1.2309212950
1.2318837833
1.2325977720
1.2331023056
1.2334244000
1.2335809066
1.2340713795
1.2729411612
1.2702265702
1.2702283682
1.2702241631
1.2702146417
1.2702016830
1.2701884745
1.2701796940
1.2701806210
1.2701966765
1.2702327989
1.2702924403
1.2703770046
1.2704851414
1.2706125205
1.2707520605
1.2708941154
1.2710276902
1.2711417383
1.2712260370
1.2712728335
1.2704633883
1.0961004654
1.0952892935
1.0956765130
1.0964720560
1.0977202452
1.0994858351
1.1018508039
1.1049100419
1.1087630177
1.1135013726
1.1191932700
1.1258653080
1.1334839804
1.1419415453
1.1510513258
1.1605646848
1.1701639252
1.1795255032
1.1883504573
1.1964020928
1.2035297698
1.2096704944
1.2148381824
1.2191028895
1.2225671455
1.2253460730
1.2275524196
1.2292873312
1.2306363173
1.2316683221
1.2324365714
1.2329807342
1.2333286671
1.2334979322
1.2339693629
1.2733526949
1.2706647914
1.2706679042
1.2706661625
1.2706595897
1.2706490803
1.2706365775
1.2706253553
1.2706192780
1.2706225126
1.2706390945
1.2706721019
1.2707232307
1.2707921637
1.2708763286
1.2709710197
1.2710693911
1.2711634056
1.2712448428
1.2713058926
1.2713405588
1.2706342122
1.0953942737
1.0946207409
1.0950273210
1.0958613879
1.0971660721
1.0990037433
1.1014520128
1.1045988581
1.1085340827
1.1133368894
1.1190611126
1.1257191276
1.1332664393
1.1415913125
1.1505132380
1.1598009091
1.1691612245
1.1783055109
1.1869630507
1.1949165263
1.2020217313
1.2082103281
1.2134820864
1.2178893242
1.2215164885
1.2244631274
1.2268301992
1.2287107319
1.2301855881
1.2313215798
1.2321715420
1.2327757352
1.2331629669
1.2333516912
1.2337922105
1.2738420821
1.2711850990
1.2711899283
1.2711913915
1.2711886612
1.2711813758
1.2711698993
1.2711557363
1.2711409806
1.2711282438
1.2711204566
1.2711202612
1.2711297482
1.2711499134
1.2711803879
1.2712194223
1.2712636389
1.2713086526
1.2713497256
1.2713820152
1.2714016843
1.2708289440
1.0944739193
1.0937490912
1.0941812928
1.0950662377
1.0964453912
1.0983778722
1.1009356167
1.1041975725
1.1082409936
1.1131291393
1.1188977044
1.1255412721
1.1330016898
1.1411621890
1.1498505544
1.1588523422
1.1679101570
1.1767736018
1.1852079231
1.1930215906
1.2000803088
1.2063116512
1.2117001503
1.2162767540
1.2201037987
1.2232607702
1.2258327975
1.2279017647
1.2295414697
1.2308151119
1.2317742451
1.2324592377
1.2328996741
1.2331148247
1.2335097042
1.2743616414
1.2717365156
1.2717434626
1.2717488696
1.2717508994
1.2717477090
1.2717378130
1.2717206593
1.2716963012
1.2716655765
1.2716301771
1.2715922828
1.2715544755
1.2715192830
1.2714888681
1.2714648493
1.2714477778
1.2714373886
1.2714328604
1.2714326816
1.2714354334
1.2710235928
1.0933535638
1.0926873523
1.0931513541
1.0940992747
1.0955703098
1.0976194658
1.1003116528
1.1037149135
1.1078913735
1.1128853037
1.1187111637
1.1253429908
1.1327070075
1.1406806056
1.1491011261
1.1577701491
1.1664735115
1.1750005041
1.1831580073
1.1907853855
1.1977630880
1.2040171875
1.2095182314
1.2142747481
1.2183239652
1.2217219772
1.2245343565
1.2268284185
1.2286682490
1.2301112653
1.2312062606
1.2319927533
1.2325004728
1.2327491797
1.2330798861
1.2748552694
1.2722596634
1.2722691830
1.2722793756
1.2722872687
1.2722893634
1.2722821225
1.2722627319
1.2722290228
1.2721799229
1.2721158136
1.2720384149
1.2719508747
1.2718573939
1.2717628558
1.2716724651
1.2715909273
1.2715223113
1.2714698988
1.2714356544
1.2714206763
1.2711931632
1.0920462695
1.0914473496
1.0919493383
1.0929721182
1.0945519680
1.0967387511
1.0995890183
1.1031583757
1.1074916352
1.1126115876
1.1185089458
1.1251353783
1.1324002345
1.1401752490
1.1483043001
1.1566101585
1.1649197852
1.1730648279
1.1808962938
1.1882878321
1.1951398945
1.2013818319
1.2069728481
1.2119005630
1.2161765428
1.2198309931
1.2229069796
1.2254539834
1.2275231521
1.2291635395
1.2304190433
1.2313267377
1.2319154412
1.2322047122
1.2324481022
1.2752606800
1.2726894251
1.2727021038
1.2727181816
1.2727334557
1.2727426457
1.2727400243
1.2727203865
1.2726792385
1.2726135331
1.2725223195
1.2724068726
1.2722709461
1.2721204610
1.2719630579
1.2718075400
1.2716627469
1.2715370304
1.2714377008
1.2713701145
1.2713378116
1.2713136910
1.0905611495
1.0900370138
1.0905833863
1.0916931195
1.0933985573
1.0957431254
1.0987738481
1.1025323000
1.1070451450
1.1123115356
1.1182970754
1.1249290461
1.1321000500
1.1396735600
1.1474997657
1.1554283539
1.1633193508
1.1710486316
1.1785111311
1.1856171064
1.1922914176
1.1984721720
1.2041123511
1.2091821208
1.2136688885
1.2175767704
1.2209241289
1.2237396261
1.2260583762
1.2279178926
1.2293544997
1.2304006849
1.2310827341
1.2314189961
1.2315468528
1.2755126736
1.2729585566
1.2729751985
1.2729986874
1.2730235212
1.2730425531
1.2730477807
1.2730315412
1.2729869757
1.2729090499
1.2727954894
1.2726471357
1.2724683386
1.2722666851
1.2720524562
1.2718378633
1.2716356210
1.2714580522
1.2713161630
1.2712183823
1.2711704341
1.2713640711
1.0889005407
1.0884574544
1.0890547974
1.0902640948
1.0921126465
1.0946360295
1.0978698047
1.1018399411
1.1065532014
1.1119862697
1.1180780273
1.1247309421
1.1318186756
1.1391989493
1.1467286598
1.1542780682
1.1617403910
1.1690323796
1.1760913647
1.1828650449
1.1893055877
1.1953651587
1.2009970291
1.2061594494
1.2108195490
1.2149567459
1.2185642952
1.2216480889
1.2242241013
1.2263151156
1.2279467977
1.2291443344
1.2299294396
1.2303178648
1.2302971150
1.2755474181
1.2730022100
1.2730239172
1.2730569246
1.2730943809
1.2731272163
1.2731451060
1.2731379042
1.2730963868
1.2730135494
1.2728858128
1.2727135764
1.2725017196
1.2722593434
1.2719991101
1.2717362682
1.2714869311
1.2712668432
1.2710901249
1.2709677233
1.2709070948
1.2713280052
1.0870569614
1.0867002759
1.0873553960
1.0886773728
1.0906873274
1.0934114033
1.0968718917
1.1010776276
1.1060144724
1.1116346559
1.1178520269
1.1245455575
1.1315701541
1.1387758072
1.1460250302
1.1532071935
1.1602440529
1.1670899883
1.1737208723
1.1801211013
1.1862717659
1.1921437531
1.1976970501
1.2028848343
1.2076595159
1.2119796304
1.2158148601
1.2191475034
1.2219723058
1.2242943611
1.2261254137
1.2274803936
1.2283739908
1.2288176968
1.2286115989
1.2753065249
1.2727620772
1.2727903021
1.2728356169
1.2728897806
1.2729417594
1.2729788763
1.2729884975
1.2729590484
1.2728815772
1.2727512087
1.2725678615
1.2723368232
1.2720684739
1.2717774873
1.2714816351
1.2711997811
1.2709503369
1.2707497280
1.2706106248
1.2705415456
1.2711944342
1.0850103723
1.0847450144
1.0854655084
1.0869146570
1.0891059009
1.0920542260
1.0957669994
1.1002345653
1.1054204329
1.1112523375
1.1176194323
1.1243776060
1.1313647993
1.1384227565
1.1454183261
1.1522557654
1.1588824277
1.1652846353
1.1714744694
1.1774677090
1.1832759916
1.1888922845
1.1942888042
1.1994206644
1.2042326124
1.2086678988
1.2126758604
1.2162163886
1.2192622460
1.2217986230
1.2238205399
1.2253297216
1.2263312675
1.2268305172
1.2264012265
1.2747414753
1.2721907133
1.2722272670
1.2722883702
1.2723643533
1.2724421787
1.2725067893
1.2725430562
1.2725370618
1.2724779141
1.2723594276
1.2721809688
1.2719480701
1.2716721051
1.2713693255
1.2710594320
1.2707632792
1.2705010391
1.2702904267
1.2701447825
1.2700727375
1.2709576579
1.0827256956
1.0825566687
1.0833517324
1.0849452646
1.0873409503
1.0905404699
1.0945343307
1.0992933083
1.1047579984
1.1108307928
1.1173765024
1.1242291503
1.1312109385
1.1381548524
1.1449310074
1.1514547428
1.1576969164
1.1636684456
1.1694099984
1.1749716251
1.1803923207
1.1856883365
1.1908484445
1.1958358944
1.2005948314
1.2050597334
1.2091647092
1.2128503934
1.2160685108
1.2187836456
1.2209722238
1.2226204010
1.2237213779
1.2242725327
1.2235849314
1.2738179599
1.2712556509
1.2713026659
1.2713836495
1.2714874597
1.2715990071
1.2717008115
1.2717752220
1.2718059596
1.2717801681
1.2716903058
1.2715350878
1.2713201096
1.2710574471
1.2707645015
1.2704623109
1.2701729394
1.2699173324
1.2697132999
1.2695734950
1.2695053085
1.2706179318
1.0801500184
1.0800830370
1.0809647506
1.0827246430
1.0853535336
1.0888367579
1.0931458707
1.0982313725
1.1040093855
1.1103579091
1.1171166288
1.1240997410
1.1311122552
1.1379824131
1.1445768771
1.1508268439
1.1567121561
1.1622708234
1.1675699430
1.1726851768
1.1776817266
1.1825995942
1.1874468791
1.1921999298
1.1968086046
1.2012053510
1.2053151942
1.2090641294
1.2123856717
1.2152248128
1.2175389873
1.2192975010
1.2204800695
1.2210747257
1.2201013543
1.2725187890
1.2699419520
1.2700017899
1.2701071671
1.2702454162
1.2703993318
1.2705489430
1.2706740176
1.2707558563
1.2707795730
1.2707361888
1.2706236524
1.2704474544
1.2702201363
1.2699599143
1.2696886923
1.2694290710
1.2692018129
1.2690234950
1.2689043394
1.2688484901
1.2701804496
1.0772084132
1.0772506546
1.0782362887
1.0801926340
1.0830925573
1.0869008287
1.0915678215
1.0970220902
1.1031551210
1.1098197605
1.1168320192
1.1239853384
1.1310716645
1.1379069885
1.1443673293
1.1503759378
1.1559391164
1.1611108181
1.1659785236
1.1706408764
1.1751865392
1.1796782147
1.1841443883
1.1885777547
1.1929389689
1.1971646349
1.2011770429
1.2048932385
1.2082329142
1.2111242909
1.2135071555
1.2153341683
1.2165710979
1.2171959781
1.2159227191
1.2708461052
1.2682540536
1.2683291649
1.2684635849
1.2686430580
1.2688481797
1.2690563915
1.2692447794
1.2693921161
1.2694813684
1.2695020039
1.2694510844
1.2693338760
1.2691632718
1.2689581747
1.2687411628
1.2685350041
1.2683595442
1.2682287695
1.2681482256
1.2681156815
1.2696549220
1.0737993855
1.0739603229
1.0750763750
1.0772727239
1.0804959369
1.0846842499
1.0897631531
1.0956381587
1.1021761356
1.1092024836
1.1165153207
1.1238821284
1.1310855469
1.1379337956
1.1442902969
1.1501012807
1.1553779568
1.1601894297
1.1646411034
1.1688512241
1.1729290104
1.1769579772
1.1809866233
1.1850254807
1.1890493816
1.1930040151
1.1968147852
1.2003957843
1.2036583088
1.2065181626
1.2089005644
1.2107433987
1.2119994093
1.2126369515
1.2110681482
1.2688224731
1.2662165555
1.2663093156
1.2664772312
1.2667043883
1.2669690832
1.2672460415
1.2675095218
1.2677356015
1.2679049222
1.2680052346
1.2680325878
1.2679919736
1.2678967086
1.2677665875
1.2676251616
1.2674956028
1.2673966763
1.2673386528
1.2673195675
1.2673257481
1.2690568865
1.0697884670
1.0700805462
1.0713701514
1.0738724935
1.0774936925
1.0821362501
1.0876967039
1.0940554151
1.1010564633
1.1084981876
1.1161564232
1.1237896605
1.1311480918
1.1380420045
1.1443415127
1.1499921551
1.1550150448
1.1594926276
1.1635458424
1.1673098536
1.1709117557
1.1744536069
1.1780025389
1.1815869100
1.1851973799
1.1887920395
1.1923041044
1.1956502527
1.1987391071
1.2014793552
1.2037860969
1.2055858246
1.2068205672
1.2074503698
1.2056119598
1.2664900298
1.2638731257
1.2639856507
1.2641909471
1.2644713705
1.2648028049
1.2651571023
1.2655054981
1.2658211379
1.2660820774
1.2662741140
1.2663921271
1.2664408447
1.2664343010
1.2663938477
1.2663450723
1.2663128625
1.2663159637
1.2663607021
1.2664343520
1.2665035079
1.2684081891
1.0649959111
1.0654350308
1.0669733525
1.0698858828
1.0740129265
1.0792078316
1.0853425943
1.0922621056
1.0997874243
1.1077070893
1.1157593307
1.1236883645
1.1312456145
1.1382291196
1.1445071062
1.1500298225
1.1548276808
1.1589954609
1.1626682119
1.1659961337
1.1691219957
1.1721641462
1.1752064321
1.1782939554
1.1814333794
1.1845968807
1.1877286933
1.1907525503
1.1935796568
1.1961170575
1.1982748850
1.1999726417
1.2011450278
1.2017460346
1.1996855525
1.2639089685
1.2612848901
1.2614188534
1.2616644836
1.2620023374
1.2624057673
1.2628435670
1.2632836987
1.2636960518
1.2640557170
1.2643461741
1.2645608701
1.2647042622
1.2647915803
1.2648469286
1.2649000632
1.2649806691
1.2651109569
1.2652955522
1.2655084392
1.2656834325
1.2677406400
1.0591755830
1.0597816144
1.0617076012
1.0652018399
1.0699962652
1.0758779474
1.0826940037
1.0902668892
1.0983854937
1.1068235054
1.1153167745
1.1235887459
1.1313810918
1.1384859754
1.1447712460
1.1501922200
1.1547886350
1.1586673800
1.1619770147
1.1648816537
1.1675381251
1.1700790948
1.1726030761
1.1751702293
1.1778023420
1.1804859666
1.1831780405
1.1858124131
1.1883070553
1.1905722472
1.1925182003
1.1940621172
1.1951352562
1.1956883143
1.1934711275
1.2611549508
1.2585278720
1.2586843536
1.2589720421
1.2593696386
1.2598478452
1.2603721900
1.2609070507
1.2614186235
1.2618784836
1.2622672025
1.2625762780
1.2628096763
1.2629842765
1.2631285520
1.2632798284
1.2634783322
1.2637577050
1.2641290886
1.2645554000
1.2649199540
1.2671062900
1.0519729818
1.0527708443
1.0553544459
1.0597146631
1.0654122582
1.0721600308
1.0797868881
1.0880937767
1.0968749710
1.1058881656
1.1148597469
1.1235048778
1.1315579675
1.1388069094
1.1451200676
1.1504583919
1.1548713642
1.1584782719
1.1614411813
1.1639376122
1.1661373860
1.1681859140
1.1701944713
1.1722363857
1.1743470766
1.1765267512
1.1787454184
1.1809486448
1.1830639426
1.1850085256
1.1866968888
1.1880481427
1.1889938051
1.1894840365
1.1871861104
1.2583152392
1.2556892109
1.2558685777
1.2561985942
1.2566560675
1.2572089390
1.2578192460
1.2584474047
1.2590553406
1.2596103199
1.2600890486
1.2604800589
1.2607860121
1.2610253574
1.2612324354
1.2614565693
1.2617577206
1.2621965490
1.2628121251
1.2635751208
1.2643056779
1.2665955665
1.0428380120
1.0438583803
1.0476426291
1.0533362549
1.0602614621
1.0681208336
1.0767084653
1.0858472929
1.0953436776
1.1049627137
1.1144323692
1.1234651060
1.1317910624
1.1391953600
1.1455475988
1.1508148750
1.1550569102
1.1584058933
1.1610377149
1.1631431825
1.1649044659
1.1664785363
1.1679877962
1.1695169058
1.1711131714
1.1727891120
1.1745271847
1.1762849805
1.1780008613
1.1796011969
1.1810076327
1.1821443076
1.1829459167
1.1833643584
1.1810628791
1.2554848983
1.2528635179
1.2530653504
1.2534363868
1.2539515272
1.2545758619
1.2552677048
1.2559830706
1.2566788784
1.2573169795
1.2578687203
1.2583178055
1.2586635587
1.2589243805
1.2591404485
1.2593770246
1.2597259942
1.2603017695
1.2612193009
1.2625237873
1.2640136036
1.2663793246
1.0308319403
1.0321166514
1.0382595357
1.0460736044
1.0547127828
1.0639603168
1.0736497337
1.0836821601
1.0939142575
1.1041403654
1.1141022187
1.1235157981
1.1321097958
1.1396674814
1.1460598624
1.1512602851
1.1553389624
1.1584413934
1.1607576479
1.1624918492
1.1638380991
1.1649640200
1.1660017744
1.1670456917
1.1681531962
1.1693474659
1.1706221272
1.1719460936
1.1732685856
1.1745258727
1.1756481073
1.1765661880
1.1772197650
1.1775639502
1.1753276294
1.2527623649
1.2501485829
1.2503716635
1.2507808446
1.2513491426
1.2520387417
1.2528040184
1.2535961118
1.2543660566
1.2550688455
1.2556682940
1.2561401905
1.2564764217
1.2566905119
1.2568239980
1.2569571406
1.2572241037
1.2578307262
1.2590619725
1.2612277506
1.2643901417
1.2668015408
1.0141753607
1.0157863641
1.0268088198
1.0380518457
1.0491156553
1.0600116362
1.0708865435
1.0818137184
1.0927493195
1.1035412461
1.1139562550
1.1237185208
1.1325566327
1.1402516780
1.1466752657
1.1518063665
1.1557254121
1.1585912637
1.1606083067
1.1619939201
1.1629537457
1.1636652696
1.1642692292
1.1648681346
1.1655278409
1.1662804282
1.1671290385
1.1680525169
1.1690099512
1.1699470074
1.1708023231
1.1715139220
1.1720269928
1.1723004490
1.1701814158
1.2502447195
1.2476407500
1.2478830941
1.2483260894
1.2489409387
1.2496869271
1.2505143414
1.2513690022
1.2521951259
1.2529391449
1.2535545020
1.2540045169
1.2542666225
1.2543392039
1.2542512406
1.2540823234
1.2540010824
1.2543352341
1.2556913792
1.2591169428
1.2661264917
1.2685497255
0.9880811697
0.9901702504
1.0125196588
1.0297895072
1.0440451909
1.0567612968
1.0687804514
1.0805014706
1.0920341407
1.1032979929
1.1140896833
1.1241417305
1.1331809848
1.1409840996
1.1474211831
1.1524752792
1.1562360778
1.1588753190
1.1606114423
1.1616747453
1.1622818717
1.1626193512
1.1628353817
1.1630392828
1.1633037525
1.1636680210
1.1641429221
1.1647154380
1.1653528742
1.1660088994
1.1666295624
1.1671592826
1.1675483666
1.1677593438
1.1657879375
1.2480235458
1.2454308402
1.2456897699
1.2461609988
1.2468140487
1.2476054095
1.2484812574
1.2493818027
1.2502436447
1.2510029763
1.2515997060
1.2519789788
1.2520936906
1.2519095933
1.2514133202
1.2506356381
1.2497124313
1.2490406804
1.2496895631
1.2544740695
1.2705771719
1.2729708455
0.9521384778
0.9545282488
0.9990028887
1.0238609150
1.0410299615
1.0550629372
1.0678146323
1.0800311813
1.0919474654
1.1035284776
1.1145835501
1.1248429311
1.1340249026
1.1418968602
1.1483239082
1.1532907163
1.1568945880
1.1593190960
1.1607959698
1.1615677215
1.1618611864
1.1618709872
1.1617516398
1.1616179578
1.1615479736
1.1615863703
1.1617498149
1.1620314557
1.1624048220
1.1628296738
1.1632577454
1.1636384058
1.1639259757
1.1640858698
1.1622688678
1.2461804743
1.2435996836
1.2438719298
1.2443648275
1.2450464292
1.2458706717
1.2467798198
1.2477085027
1.2485853515
1.2493352103
1.2498818829
1.2501468572
1.2500469407
1.2494903776
1.2483653292
1.2465200663
1.2437219506
1.2395512503
1.2331073838
1.2221004177
1.1997344608
1.1278427807
1.0226937562
1.0269003466
1.0326997813
1.0153652697
1.0216829494
1.0325975768
1.0444851179
1.0565411338
1.0686094132
1.0806547379
1.0926023231
1.1042906185
1.1154717252
1.1258440665
1.1351038675
1.1430022247
1.1493949821
1.1542655757
1.1577169263
1.1599429330
1.1611874265
1.1617040103
1.1617286320
1.1614628607
1.1610663413
1.1606580791
1.1603200033
1.1601006326
1.1600206594
1.1600774141
1.1602485526
1.1604978114
1.1607805882
1.1610494031
1.1612611296
1.1613830356
1.1597052104
1.2447834301
1.2422143586
1.2424961728
1.2430034697
1.2437031311
1.2445469546
1.2454737944
1.2464132319
1.2472864248
1.2480072147
1.2484833373
1.2486121804
1.2482734924
1.2473172706
1.2455365294
1.2426193093
1.2380586838
1.2309662862
1.2196903760
1.2010273873
1.1686870743
1.1069000999
1.0221385165
1.0268512552
1.0299245312
1.0257869514
1.0294289801
1.0374428285
1.0475011744
1.0585485423
1.0701090959
1.0819262397
1.0937945340
1.1054803403
1.1166938490
1.1271051974
1.1363886284
1.1442778899
1.1506180382
1.1553896150
1.1586995026
1.1607503324
1.1617964900
1.1621012551
1.1619083094
1.1614249070
1.1608145683
1.1601992386
1.1596633768
1.1592578272
1.1590056002
1.1589063067
1.1589396817
1.1590713239
1.1592582235
1.1594541611
1.1596169865
1.1597146775
1.1581429130
1.2438836975
1.2413252413
1.2416125102
1.2421264936
1.2428332829
1.2436831206
1.2446122590
1.2455462918
1.2464002959
1.2470789775
1.2474766518
1.2474707837
1.2469114670
1.2456051786
1.2432815095
1.2395397810
1.2337632031
1.2249724845
1.2116065686
1.1912640619
1.1606688526
1.1157729716
1.0653284306
1.0488185621
1.0416784986
1.0370117543
1.0378219654
1.0431152022
1.0513101153
1.0612422476
1.0721807023
1.0836650252
1.0953616492
1.1069645507
1.1181424227
1.1285383372
1.1378058712
1.1456622523
1.1519417568
1.1566213742
1.1598105714
1.1617190828
1.1626099913
1.1627545155
1.1624025318
1.1617655907
1.1610098980
1.1602591462
1.1595990822
1.1590814896
1.1587301192
1.1585450786
1.1585062490
1.1585790704
1.1587201246
1.1588826057
1.1590237792
1.1591111853
1.1576002946
1.2435130357
1.2409630997
1.2412514500
1.2417641758
1.2424670188
1.2433093815
1.2442259644
1.2451398471
1.2459620865
1.2465911650
1.2469122481
1.2467893588
1.2460534541
1.2444854183
1.2417833661
1.2375155551
1.2310574169
1.2215072357
1.2076148795
1.1878266079
1.1607003342
1.1259504351
1.0897653001
1.0677974766
1.0548840761
1.0476197668
1.0459022252
1.0489176438
1.0554200292
1.0642497949
1.0745245296
1.0856232106
1.0970965433
1.1085689093
1.1196692628
1.1300160184
1.1392447709
1.1470584582
1.1532819224
1.1578885379
1.1609894447
1.1627994312
1.1635882625
1.1636330187
1.1631880991
1.1624680007
1.1616404934
1.1608299864
1.1601224398
1.1595693262
1.1591936888
1.1589944617
1.1589498393
1.1590231828
1.1591687509
1.1593373773
1.1594842364
1.1595753152
1.1580748390
1.2436824883
1.2411379862
1.2414229048
1.2419264059
1.2426143505
1.2434360913
1.2443259755
1.2452062887
1.2459864595
1.2465621911
1.2468143060
1.2466003338
1.2457421692
1.2440100811
1.2410928567
1.2365587058
1.2298124475
1.2200564599
1.2063021412
1.1875327132
1.1631738028
1.1340118135
1.1042870449
1.0814810787
1.0658875619
1.0565062343
1.0528586159
1.0541589565
1.0593128425
1.0671950056
1.0768527703
1.0875637859
1.0987936442
1.1101106185
1.1211102041
1.1313901569
1.1405714465
1.1483455307
1.1545299532
1.1590946350
1.1621512072
1.1639175274
1.1646672777
1.1646813349
1.1642167860
1.1634898212
1.1626687815
1.1618780537
1.1612028306
1.1606932267
1.1603701863
1.1602298848
1.1602470585
1.1603811222
1.1605821540
1.1607969061
1.1609770006
1.1610857881
1.1595470231
1.2443819724
1.2418389440
1.2421159238
1.2426024304
1.2432649160
1.2440534960
1.2449034428
1.2457379690
1.2464674713
1.2469882683
1.2471816909
1.2469051396
1.2459798202
1.2441760630
1.2411861079
1.2365888165
1.2298156372
1.2201341004
1.2066906622
1.1887073817
1.1659342904
1.1394032965
1.1124170594
1.0897946966
1.0732112255
1.0627167678
1.0579636470
1.0582324136
1.0625142920
1.0697243443
1.0788964192
1.0892676538
1.1002619644
1.1114162167
1.1223049688
1.1325119602
1.1416476503
1.1493957707
1.1555682891
1.1601324895
1.1631986010
1.1649851237