<VTKFile type="UnstructuredGrid" version="0.1">
	<UnstructuredGrid>
		<Piece NumberOfPoints="13548" NumberOfCells="3387">
			<CellData>
				<DataArray type="Int32" Name="ghost" NumberOfComponents="1" Format="ascii">
1
1
1
1
1
1
1
1
1
1
1
1
1
1
1
1
1
1
1
1
1
1
1
1
1
1
1
1
1
1
1
1
1
1
1
1
1
1
1
1
1
1
1
1
1
1
1
1
1
1
1
1
1
1
1
1
1
1
0
0
0
0
0
0
0
0
0
0
0
0
0
0
0
0
0
0
0
0
1
1
0
0
0
0
0
0
0
0
0
0
0
0
0
0
0
0
0
0
0
0
0
0
0
0
0
0
0
0
0
0
0
0
0
1
1
0
0
0
0
0
0
0
0
0
0
0
0
0
0
0
0
0
0
0
0
1
1
0
0
0
0
0
0
0
0
0
0
0
0
0
0
0
0
0
0
0
0
0
0
0
0
0
0
0
0
0
0
0
0
0
1
1
0
0
0
0
0
0
0
0
0
0
0
0
0
0
0
0
0
0
0
0
1
1
0
0
0
0
0
0
0
0
0
0
0
0
0
0
0
0
0
0
0
0
0
0
0
0
0
0
0
0
0
0
0
0
0
1
1
0
0
0
0
0
0
0
0
0
0
0
0
0
0
0
0
0
0
0
0
1
1
0
0
0
0
0
0
0
0
0
0
0
0
0
0
0
0
0
0
0
0
0
0
0
0
0
0
0
0
0
0
0
0
0
1
1
0
0
0
0
0
0
0
0
0
0
0
0
0
0
0
0
0
0
0
0
1
1
0
0
0
0
0
0
0
0
0
0
0
0
0
0
0
0
0
0
0
0
0
0
0
0
0
0
0
0
0
0
0
0
0
1
1
0
0
0
0
0
0
0
0
0
0
0
0
0
0
0
0
0
0
0
0
1
1
0
0
0
0
0
0
0
0
0
0
0
0
0
0
0
0
0
0
0
0
0
0
0
0
0
0
0
0
0
0
0
0
0
1
1
0
0
0
0
0
0
0
0
0
0
0
0
0
0
0
0
0
0
0
0
1
1
0
0
0
0
0
0
0
0
0
0
0
0
0
0
0
0
0
0
0
0
0
0
0
0
0
0
0
0
0
0
0
0
0
1
1
0
0
0
0
0
0
0
0
0
0
0
0
0
0
0
0
0
0
0
0
1
1
0
0
0
0
0
0
0
0
0
0
0
0
0
0
0
0
0
0
0
0
0
0
0
0
0
0
0
0
0
0
0
0
0
1
1
0
0
0
0
0
0
0
0
0
0
0
0
0
0
0
0
0
0
0
0
1
1
0
0
0
0
0
0
0
0
0
0
0
0
0
0
0
0
0
0
0
0
0
0
0
0
0
0
0
0
0
0
0
0
0
1
1
0
0
0
0
0
0
0
0
0
0
0
0
0
0
0
0
0
0
0
0
1
1
0
0
0
0
0
0
0
0
0
0
0
0
0
0
0
0
0
0
0
0
0
0
0
0
0
0
0
0
0
0
0
0
0
1
1
0
0
0
0
0
0
0
0
0
0
0
0
0
0
0
0
0
0
0
0
1
1
0
0
0
0
0
0
0
0
0
0
0
0
0
0
0
0
0
0
0
0
0
0
0
0
0
0
0
0
0
0
0
0
0
1
1
0
0
0
0
0
0
0
0
0
0
0
0
0
0
0
0
0
0
0
0
1
1
0
0
0
0
0
0
0
0
0
0
0
0
0
0
0
0
0
0
0
0
0
0
0
0
0
0
0
0
0
0
0
0
0
1
1
0
0
0
0
0
0
0
0
0
0
0
0
0
0
0
0
0
0
0
0
1
1
0
0
0
0
0
0
0
0
0
0
0
0
0
0
0
0
0
0
0
0
0
0
0
0
0
0
0
0
0
0
0
0
0
1
1
0
0
0
0
0
0
0
0
0
0
0
0
0
0
0
0
0
0
0
0
1
1
0
0
0
0
0
0
0
0
0
0
0
0
0
0
0
0
0
0
0
0
0
0
0
0
0
0
0
0
0
0
0
0
0
1
1
0
0
0
0
0
0
0
0
0
0
0
0
0
0
0
0
0
0
0
0
1
1
0
0
0
0
0
0
0
0
0
0
0
0
0
0
0
0
0
0
0
0
0
0
0
0
0
0
0
0
0
0
0
0
0
1
1
0
0
0
0
0
0
0
0
0
0
0
0
0
0
0
0
0
0
0
0
1
1
0
0
0
0
0
0
0
0
0
0
0
0
0
0
0
0
0
0
0
0
0
0
0
0
0
0
0
0
0
0
0
0
0
1
1
0
0
0
0
0
0
0
0
0
0
0
0
0
0
0
0
0
0
0
0
1
1
0
0
0
0
0
0
0
0
0
0
0
0
0
0
0
0
0
0
0
0
0
0
0
0
0
0
0
0
0
0
0
0
0
1
1
0
0
0
0
0
0
0
0
0
0
0
0
0
0
0
0
0
0
0
0
1
1
0
0
0
0
0
0
0
0
0
0
0
0
0
0
0
0
0
0
0
0
0
0
0
0
0
0
0
0
0
0
0
0
0
1
1
0
0
0
0
0
0
0
0
0
0
0
0
0
0
0
0
0
0
0
0
1
1
0
0
0
0
0
0
0
0
0
0
0
0
0
0
0
0
0
0
0
0
0
0
0
0
0
0
0
0
0
0
0
0
0
1
1
0
0
0
0
0
0
0
0
0
0
0
0
0
0
0
0
0
0
0
0
1
1
0
0
0
0
0
0
0
0
0
0
0
0
0
0
0
0
0
0
0
0
0
0
0
0
0
0
0
0
0
0
0
0
0
1
1
0
0
0
0
0
0
0
0
0
0
0
0
0
0
0
0
0
0
0
0
1
1
0
0
0
0
0
0
0
0
0
0
0
0
0
0
0
0
0
0
0
0
0
0
0
0
0
0
0
0
0
0
0
0
0
1
1
0
0
0
0
0
0
0
0
0
0
0
0
0
0
0
0
0
0
0
0
1
1
0
0
0
0
0
0
0
0
0
0
0
0
0
0
0
0
0
0
0
0
0
0
0
0
0
0
0
0
0
0
0
0
0
1
1
0
0
0
0
0
0
0
0
0
0
0
0
0
0
0
0
0
0
0
0
1
1
0
0
0
0
0
0
0
0
0
0
0
0
0
0
0
0
0
0
0
0
0
0
0
0
0
0
0
0
0
0
0
0
0
1
1
0
0
0
0
0
0
0
0
0
0
0
0
0
0
0
0
0
0
0
0
1
1
0
0
0
0
0
0
0
0
0
0
0
0
0
0
0
0
0
0
0
0
0
0
0
0
0
0
0
0
0
0
0
0
0
1
1
0
0
0
0
0
0
0
0
0
0
0
0
0
0
0
0
0
0
0
0
0
1
1
0
0
0
0
0
0
0
0
0
0
0
0
0
0
0
0
0
0
0
0
0
0
0
0
0
0
0
0
0
0
0
0
0
0
1
1
0
0
0
0
0
0
0
0
0
0
0
0
0
0
0
0
0
0
0
0
0
0
0
0
0
0
0
0
0
0
0
0
0
0
0
0
0
0
0
0
0
0
0
0
0
0
0
0
0
0
0
0
0
0
0
0
0
1
1
0
0
0
0
0
0
0
0
0
0
0
0
0
0
0
0
0
0
0
0
0
0
0
0
0
0
0
0
0
0
0
0
0
0
0
0
0
0
0
0
0
0
0
0
0
0
0
0
0
0
0
0
0
0
0
0
0
1
1
0
0
0
0
0
0
0
0
0
0
0
0
0
0
0
0
0
0
0
0
0
0
0
0
0
0
0
0
0
0
0
0
0
0
0
0
0
0
0
0
0
0
0
0
0
0
0
0
0
0
0
0
0
0
0
0
0
1
1
0
0
0
0
0
0
0
0
0
0
0
0
0
0
0
0
0
0
0
0
0
0
0
0
0
0
0
0
0
0
0
0
0
0
0
0
0
0
0
0
0
0
0
0
0
0
0
0
0
0
0
0
0
0
0
0
0
1
1
0
0
0
0
0
0
0
0
0
0
0
0
0
0
0
0
0
0
0
0
0
0
0
0
0
0
0
0
0
0
0
0
0
0
0
0
0
0
0
0
0
0
0
0
0
0
0
0
0
0
0
0
0
0
0
0
0
1
1
0
0
0
0
0
0
0
0
0
0
0
0
0
0
0
0
0
0
0
0
0
0
0
0
0
0
0
0
0
0
0
0
0
0
0
0
0
0
0
0
0
0
0
0
0
0
0
0
0
0
0
0
0
0
0
0
0
1
1
0
0
0
0
0
0
0
0
0
0
0
0
0
0
0
0
0
0
0
0
0
0
0
0
0
0
0
0
0
0
0
0
0
0
0
0
0
0
0
0
0
0
0
0
0
0
0
0
0
0
0
0
0
0
0
0
0
1
1
0
0
0
0
0
0
0
0
0
0
0
0
0
0
0
0
0
0
0
0
0
0
0
0
0
0
0
0
0
0
0
0
0
0
0
0
0
0
0
0
0
0
0
0
0
0
0
0
0
0
0
0
0
0
0
0
0
1
1
0
0
0
0
0
0
0
0
0
0
0
0
0
0
0
0
0
0
0
0
0
0
0
0
0
0
0
0
0
0
0
0
0
0
0
0
0
0
0
0
0
0
0
0
0
0
0
0
0
0
0
0
0
0
0
0
0
1
1
0
0
0
0
0
0
0
0
0
0
0
0
0
0
0
0
0
0
0
0
0
0
0
0
0
0
0
0
0
0
0
0
0
0
0
0
0
0
0
0
0
0
0
0
0
0
0
0
0
0
0
0
0
0
0
0
0
1
1
0
0
0
0
0
0
0
0
0
0
0
0
0
0
0
0
0
0
0
0
0
1
1
0
0
0
0
0
0
0
0
0
0
0
0
0
0
0
0
0
0
0
0
0
0
0
0
0
0
0
0
0
0
0
0
0
0
1
1
0
0
0
0
0
0
0
0
0
0
0
0
0
0
0
0
0
0
0
0
1
1
0
0
0
0
0
0
0
0
0
0
0
0
0
0
0
0
0
0
0
0
0
0
0
0
0
0
0
0
0
0
0
0
0
1
1
0
0
0
0
0
0
0
0
0
0
0
0
0
0
0
0
0
0
0
0
1
1
0
0
0
0
0
0
0
0
0
0
0
0
0
0
0
0
0
0
0
0
0
0
0
0
0
0
0
0
0
0
0
0
0
1
1
0
0
0
0
0
0
0
0
0
0
0
0
0
0
0
0
0
0
0
0
1
1
0
0
0
0
0
0
0
0
0
0
0
0
0
0
0
0
0
0
0
0
0
0
0
0
0
0
0
0
0
0
0
0
0
1
1
0
0
0
0
0
0
0
0
0
0
0
0
0
0
0
0
0
0
0
0
1
1
0
0
0
0
0
0
0
0
0
0
0
0
0
0
0
0
0
0
0
0
0
0
0
0
0
0
0
0
0
0
0
0
0
1
1
0
0
0
0
0
0
0
0
0
0
0
0
0
0
0
0
0
0
0
0
1
1
0
0
0
0
0
0
0
0
0
0
0
0
0
0
0
0
0
0
0
0
0
0
0
0
0
0
0
0
0
0
0
0
0
1
1
0
0
0
0
0
0
0
0
0
0
0
0
0
0
0
0
0
0
0
0
1
1
0
0
0
0
0
0
0
0
0
0
0
0
0
0
0
0
0
0
0
0
0
0
0
0
0
0
0
0
0
0
0
0
0
1
1
0
0
0
0
0
0
0
0
0
0
0
0
0
0
0
0
0
0
0
0
1
1
0
0
0
0
0
0
0
0
0
0
0
0
0
0
0
0
0
0
0
0
0
0
0
0
0
0
0
0
0
0
0
0
0
1
1
0
0
0
0
0
0
0
0
0
0
0
0
0
0
0
0
0
0
0
0
1
1
0
0
0
0
0
0
0
0
0
0
0
0
0
0
0
0
0
0
0
0
0
0
0
0
0
0
0
0
0
0
0
0
0
1
1
0
0
0
0
0
0
0
0
0
0
0
0
0
0
0
0
0
0
0
0
1
1
0
0
0
0
0
0
0
0
0
0
0
0
0
0
0
0
0
0
0
0
0
0
0
0
0
0
0
0
0
0
0
0
0
1
1
0
0
0
0
0
0
0
0
0
0
0
0
0
0
0
0
0
0
0
0
1
1
0
0
0
0
0
0
0
0
0
0
0
0
0
0
0
0
0
0
0
0
0
0
0
0
0
0
0
0
0
0
0
0
0
1
1
0
0
0
0
0
0
0
0
0
0
0
0
0
0
0
0
0
0
0
0
1
1
0
0
0
0
0
0
0
0
0
0
0
0
0
0
0
0
0
0
0
0
0
0
0
0
0
0
0
0
0
0
0
0
0
1
1
0
0
0
0
0
0
0
0
0
0
0
0
0
0
0
0
0
0
0
0
1
1
0
0
0
0
0
0
0
0
0
0
0
0
0
0
0
0
0
0
0
0
0
0
0
0
0
0
0
0
0
0
0
0
0
1
1
0
0
0
0
0
0
0
0
0
0
0
0
0
0
0
0
0
0
0
0
1
1
0
0
0
0
0
0
0
0
0
0
0
0
0
0
0
0
0
0
0
0
0
0
0
0
0
0
0
0
0
0
0
0
0
1
1
0
0
0
0
0
0
0
0
0
0
0
0
0
0
0
0
0
0
0
0
1
1
0
0
0
0
0
0
0
0
0
0
0
0
0
0
0
0
0
0
0
0
0
0
0
0
0
0
0
0
0
0
0
0
0
1
1
0
0
0
0
0
0
0
0
0
0
0
0
0
0
0
0
0
0
0
0
1
1
0
0
0
0
0
0
0
0
0
0
0
0
0
0
0
0
0
0
0
0
0
0
0
0
0
0
0
0
0
0
0
0
0
1
1
0
0
0
0
0
0
0
0
0
0
0
0
0
0
0
0
0
0
0
0
1
1
0
0
0
0
0
0
0
0
0
0
0
0
0
0
0
0
0
0
0
0
0
0
0
0
0
0
0
0
0
0
0
0
0
1
1
0
0
0
0
0
0
0
0
0
0
0
0
0
0
0
0
0
0
0
0
1
1
0
0
0
0
0
0
0
0
0
0
0
0
0
0
0
0
0
0
0
0
0
0
0
0
0
0
0
0
0
0
0
0
0
1
1
0
0
0
0
0
0
0
0
0
0
0
0
0
0
0
0
0
0
0
0
1
1
0
0
0
0
0
0
0
0
0
0
0
0
0
0
0
0
0
0
0
0
0
0
0
0
0
0
0
0
0
0
0
0
0
1
1
0
0
0
0
0
0
0
0
0
0
0
0
0
0
0
0
0
0
0
0
1
1
0
0
0
0
0
0
0
0
0
0
0
0
0
0
0
0
0
0
0
0
0
0
0
0
0
0
0
0
0
0
0
0
0
1
1
0
0
0
0
0
0
0
0
0
0
0
0
0
0
0
0
0
0
0
0
1
1
0
0
0
0
0
0
0
0
0
0
0
0
0
0
0
0
0
0
0
0
0
0
0
0
0
0
0
0
0
0
0
0
0
1
1
0
0
0
0
0
0
0
0
0
0
0
0
0
0
0
0
0
0
0
0
1
1
0
0
0
0
0
0
0
0
0
0
0
0
0
0
0
0
0
0
0
0
0
0
0
0
0
0
0
0
0
0
0
0
0
1
1
1
1
1
1
1
1
1
1
1
1
1
1
1
1
1
1
1
1
1
1
1
1
1
1
1
1
1
1
1
1
1
1
1
1
1
1
1
1
1
1
1
1
1
1
1
1
1
1
1
1
1
1
1
1
1
1
				</DataArray>
				<DataArray type="Float64" Name="h" NumberOfComponents="1" Format="ascii">
1.1233335013
1.1212887910
1.1211065202
1.1207465681
1.1202206524
1.1195456628
1.1187430398
1.1178380325
1.1168583830
1.1158333008
1.1147922805
1.1137637416
1.1127741099
1.1118468451
1.1110018081
1.1102551479
1.1096191559
1.1091026853
1.1087117792
1.1084500222
1.1083193457
1.1083193457
1.2550517169
1.2549100870
1.2549232639
1.2549557904
1.2550096462
1.2550859586
1.2551828673
1.2552927644
1.2554000977
1.2554789004
1.2554911009
1.2553863884
1.2551036458
1.2545747204
1.2537308288
1.2525114416
1.2508744525
1.2488059087
1.2463274614
1.2434985767
1.2404126063
1.2371872506
1.2339503471
1.2308246880
1.2279151305
1.2252996629
1.2230257983
1.2211120827
1.2195532070
1.2183268008
1.2174010422
1.2167420534
1.2163194117
1.2161105828
1.2161105828
1.1212887910
1.1192625308
1.1191030664
1.1187878499
1.1183271969
1.1177360070
1.1170332281
1.1162412274
1.1153845831
1.1144891651
1.1135810705
1.1126853735
1.1118252900
1.1110212804
1.1102904726
1.1096465660
1.1090997000
1.1086568884
1.1083226538
1.1080993977
1.1079882366
1.1083193457
1.2549100870
1.2547478858
1.2547729551
1.2548294775
1.2549199624
1.2550464276
1.2552083412
1.2553999252
1.2556079746
1.2558093099
1.2559687982
1.2560388123
1.2559599757
1.2556640655
1.2550794447
1.2541390390
1.2527900700
1.2510040738
1.2487855784
1.2461765096
1.2432549163
1.2401279511
1.2369193836
1.2337548588
1.2307481896
1.2279906655
1.2255453255
1.2234465111
1.2217034665
1.2203062547
1.2192330261
1.2184574156
1.2179542932
1.2177044862
1.2161105828
1.1215307288
1.1195057120
1.1193481844
1.1190368073
1.1185818244
1.1179980275
1.1173042198
1.1165225844
1.1156774780
1.1147945109
1.1138994866
1.1130171582
1.1121704020
1.1113793314
1.1106607324
1.1100279778
1.1094909070
1.1090562697
1.1087283666
1.1085094282
1.1084004539
1.1087343206
1.2547098034
1.2545660455
1.2545936180
1.2546551165
1.2547525995
1.2548874323
1.2550582525
1.2552583014
1.2554732912
1.2556788289
1.2558383932
1.2559032777
1.2558133941
1.2555001784
1.2548920868
1.2539225975
1.2525399053
1.2507168271
1.2484593128
1.2458106583
1.2428500424
1.2396853939
1.2364408895
1.2332422801
1.2302033220
1.2274152384
1.2249411053
1.2228154695
1.2210479535
1.2196291257
1.2185377042
1.2177478784
1.2172349919
1.2169802141
1.2154239161
1.1220082364
1.1199865005
1.1198327897
1.1195289783
1.1190851681
1.1185159376
1.1178398031
1.1170785851
1.1162562031
1.1153977560
1.1145284693
1.1136724654
1.1128519527
1.1120863621
1.1113918072
1.1107810179
1.1102632422
1.1098447084
1.1095292803
1.1093188493
1.1092141836
1.1095530274
1.2543144254
1.2542062916
1.2542388874
1.2543103488
1.2544217800
1.2545731785
1.2547614608
1.2549778673
1.2552059492
1.2554190238
1.2555782242
1.2556329584
1.2555218442
1.2551757145
1.2545232476
1.2534990171
1.2520531094
1.2501608033
1.2478307490
1.2451088031
1.2420762078
1.2388422498
1.2355317453
1.2322705171
1.2291721072
1.2263275423
1.2237999380
1.2216242385
1.2198108234
1.2183512790
1.2172254682
1.2164086996
1.2158772724
1.2156130465
1.2141330370
1.1227218228
1.1207063146
1.1205581765
1.1202654108
1.1198379098
1.1192899391
1.1186395934
1.1179081614
1.1171189229
1.1162962302
1.1154644660
1.1146468347
1.1138645733
1.1131361205
1.1124766114
1.1118978398
1.1114081919
1.1110131359
1.1107158966
1.1105178702
1.1104194869
1.1107655033
1.2537421983
1.2536849318
1.2537245120
1.2538098461
1.2539406355
1.2541148737
1.2543269684
1.2545652611
1.2548102001
1.2550318956
1.2551883577
1.2552264914
1.2550832227
1.2546886965
1.2539720872
1.2528696996
1.2513344609
1.2493452512
1.2469145842
1.2440918871
1.2409611755
1.2376334359
1.2342341275
1.2308889098
1.2277107880
1.2247903312
1.2221905942
1.2199470285
1.2180710798
1.2165558060
1.2153827426
1.2145288410
1.2139718077
1.2136945205
1.2123280719
1.1236719651
1.1216669045
1.1215259138
1.1212473128
1.1208407234
1.1203200060
1.1197027106
1.1190094400
1.1182626507
1.1174857373
1.1167020039
1.1159334823
1.1152001704
1.1145192411
1.1139045810
1.1133667882
1.1129131465
1.1125481493
1.1122742011
1.1120920609
1.1120017232
1.1123570433
1.2530182174
1.2530244159
1.2530721773
1.2531738206
1.2533272721
1.2535279987
1.2537672560
1.2540297638
1.2542921234
1.2545205465
1.2546693991
1.2546827198
1.2544955851
1.2540375847
1.2532388342
1.2520381087
1.2503921396
1.2482844646
1.2457324464
1.2427898396
1.2395438444
1.2361071817
1.2326056729
1.2291643393
1.2258951358
1.2228877625
1.2202049949
1.2178828007
1.2159339112
1.2143532290
1.2131244161
1.2122265274
1.2116390782
1.2113462578
1.2101276188
1.1248589946
1.1228701335
1.1227376317
1.1224758521
1.1220940918
1.1216057247
1.1210276487
1.1203796464
1.1196831934
1.1189605465
1.1182337326
1.1175233986
1.1168480804
1.1162234588
1.1156619474
1.1151727307
1.1147617856
1.1144324467
1.1141861388
1.1140228567
1.1139420704
1.1143086856
1.2521724032
1.2522515440
1.2523077719
1.2524264026
1.2526033162
1.2528310735
1.2530973213
1.2533826546
1.2536593326
1.2538892565
1.2540229337
1.2540014663
1.2537581853
1.2532224838
1.2523260305
1.2510108917
1.2492385420
1.2469980961
1.2443125120
1.2412403158
1.2378719574
1.2343215903
1.2307148241
1.2271753330
1.2238133311
1.2207171058
1.2179488285
1.2155448967
1.2135194539
1.2118695273
1.2105812711
1.2096362245
1.2090160477
1.2087064892
1.2076650933
1.1262834811
1.1243182286
1.1241952816
1.1239524317
1.1235986060
1.1231466250
1.1226126454
1.1220155210
1.1213756201
1.1207139200
1.1200510171
1.1194060111
1.1187958088
1.1182344275
1.1177326365
1.1172980378
1.1169351376
1.1166459574
1.1164308035
1.1162887909
1.1162187809
1.1165984438
1.2512374806
1.2513957020
1.2514596775
1.2515940341
1.2517924572
1.2520443999
1.2523336632
1.2526364755
1.2529205451
1.2531433645
1.2532517035
1.2531839604
1.2528720777
1.2522458143
1.2512391340
1.2497982485
1.2478902337
1.2455105031
1.2426880629
1.2394863023
1.2359986251
1.2323399903
1.2286349584
1.2250049598
1.2215576517
1.2183792781
1.2155310110
1.2130495207
1.2109504072
1.2092330128
1.2078862554
1.2068944498
1.2062416632
1.2059153971
1.2050742777
1.1279456572
1.1260130939
1.1259004589
1.1256780339
1.1253543406
1.1249415955
1.1244551479
1.1239128436
1.1233338547
1.1227377828
1.1221436930
1.1215690357
1.1210289833
1.1205357823
1.1200984465
1.1197228778
1.1194119873
1.1191663553
1.1189850417
1.1188661650
1.1188078870
1.1192019521
1.2502456381
1.2504857591
1.2505557707
1.2507026678
1.2509179339
1.2511879101
1.2514925622
1.2518037913
1.2520848492
1.2522890452
1.2523598658
1.2522335168
1.2518411226
1.2511135214
1.2499877815
1.2484150785
1.2463687977
1.2438511178
1.2408972128
1.2375750626
1.2339803860
1.2302280404
1.2264405056
1.2227359587
1.2192186328
1.2159720766
1.2130560501
1.2105073055
1.2083428872
1.2065645659
1.2051642075
1.2041291059
1.2034459213
1.2031040468
1.2024788205
1.1298450230
1.1279557898
1.1278538923
1.1276527268
1.1273603872
1.1269884529
1.1265514257
1.1260660991
1.1255504034
1.1250225212
1.1244999474
1.1239984484
1.1235314297
1.1231093303
1.1227393618
1.1224256606
1.1221694528
1.1219697619
1.1218242653
1.1217299447
1.1216841418
1.1220933704
1.2492257544
1.2495474952
1.2496209477
1.2497754694
1.2500004839
1.2502794262
1.2505886921
1.2508961805
1.2511610778
1.2513330503
1.2513530607
1.2511558561
1.2506724657
1.2498356001
1.2485862301
1.2468811997
1.2447006950
1.2420538234
1.2389816964
1.2355562643
1.2318746296
1.2280504374
1.2242029496
1.2204460612
1.2168797471
1.2135842586
1.2106175691
1.2080163295
1.2057989890
1.2039698036
1.2025236968
1.2014510664
1.2007412802
1.2003857087
1.1999842524
1.1319804533
1.1301465137
1.1300554341
1.1298756771
1.1296148985
1.1292840286
1.1288967111
1.1284686818
1.1280166337
1.1275573479
1.1271067805
1.1266790576
1.1262858666
1.1259358815
1.1256345330
1.1253841767
1.1251842872
1.1250322069
1.1249240552
1.1248554731
1.1248227941
1.1252471426
1.2482013328
1.2486016854
1.2486752855
1.2488311157
1.2490568270
1.2493333579
1.2496340467
1.2499233873
1.2501571679
1.2502822465
1.2502380777
1.2499588296
1.2493762373
1.2484256767
1.2470527283
1.2452204215
1.2429159605
1.2401552149
1.2369846620
1.2334793003
1.2297364668
1.2258673744
1.2219869236
1.2182037706
1.2146129106
1.2112908082
1.2082933609
1.2056569795
1.2034014772
1.2015336168
1.2000514311
1.1989484794
1.1982168905
1.1978500520
1.1976729114
1.1343493323
1.1325836470
1.1325031199
1.1323442315
1.1321142045
1.1318233309
1.1314844182
1.1311121836
1.1307221442
1.1303297659
1.1299495782
1.1295941994
1.1292737402
1.1289952395
1.1287624419
1.1285759534
1.1284334374
1.1283303919
1.1282611142
1.1282195759
1.1282007796
1.1286391563
1.2471876330
1.2476613316
1.2477314079
1.2478814007
1.2480975881
1.2483589902
1.2486366099
1.2488923685
1.2490795537
1.2491433154
1.2490228005
1.2486525197
1.2479657161
1.2469011468
1.2454095432
1.2434603899
1.2410478162
1.2381939561
1.2349497762
1.2313921698
1.2276174380
1.2237331356
1.2198487503
1.2160668983
1.2124770510
1.2091515571
1.2061440701
1.2034906909
1.2012125767
1.1993190012
1.1978111155
1.1966856455
1.1959374839
1.1955620365
1.1956034038
1.1369467443
1.1352628560
1.1351922786
1.1350530479
1.1348519740
1.1345987467
1.1343053958
1.1339857089
1.1336541514
1.1333250383
1.1330116767
1.1327254112
1.1324750222
1.1322661439
1.1321010104
1.1319785544
1.1318945605
1.1318424400
1.1318142494
1.1318017399
1.1317980192
1.1322480449
1.2461900482
1.2467300756
1.2467930300
1.2469300025
1.2471263358
1.2473598030
1.2475999396
1.2478071007
1.2479331427
1.2479228354
1.2477163256
1.2472493073
1.2464572686
1.2452829218
1.2436824708
1.2416318400
1.2391316730
1.2362095640
1.2329198498
1.2293400251
1.2255640669
1.2216947452
1.2178352618
1.2140816117
1.2105174188
1.2072107751
1.2042130592
1.2015600753
1.1992743353
1.1973676208
1.1958441809
1.1947038709
1.1939443096
1.1935628904
1.1938118904
1.1397651690
1.1381767068
1.1381151624
1.1379937532
1.1378189145
1.1375997978
1.1373477523
1.1370757789
1.1367974846
1.1365262840
1.1362745671
1.1360527537
1.1358686618
1.1357268681
1.1356283684
1.1355705519
1.1355472384
1.1355493916
1.1355661665
1.1355861838
1.1355996679
1.1360574761
1.2452037024
1.2458017869
1.2458546773
1.2459723997
1.2461397001
1.2463337562
1.2465235588
1.2466690075
1.2467216878
1.2466275392
1.2463290249
1.2457636796
1.2448698490
1.2435945975
1.2418996740
1.2397671359
1.2372034326
1.2342405620
1.2309349503
1.2273633583
1.2236162306
1.2197906146
1.2159828000
1.2122818379
1.2087654199
1.2054974310
1.2025270828
1.1998899759
1.1976100196
1.1957014978
1.1941717124
1.1930235774
1.1922573662
1.1918724036
1.1923145097
1.1427933397
1.1413134897
1.1412597855
1.1411538109
1.1410016824
1.1408121050
1.1405958860
1.1403654378
1.1401337757
1.1399137545
1.1397172642
1.1395542757
1.1394321526
1.1393549040
1.1393226844
1.1393315506
1.1393732644
1.1394358339
1.1395045117
1.1395633140
1.1395978650
1.1400579550
1.2442121807
1.2448592875
1.2449006746
1.2449952609
1.2451271929
1.2452734997
1.2454034867
1.2454777031
1.2454486549
1.2452652055
1.2448733806
1.2442129041
1.2432254751
1.2418626898
1.2400916779
1.2379000542
1.2352991223
1.2323240554
1.2290320286
1.2254977839
1.2218072056
1.2180509160
1.2143179742
1.2106904413
1.2072402218
1.2040272202
1.2010987105
1.1984902555
1.1962272281
1.1943264029
1.1927980684
1.1916480961
1.1908793131
1.1904928973
1.1911112729
1.1460151220
1.1446560556
1.1446087754
1.1445154013
1.1443818049
1.1442163644
1.1440295236
1.1438333598
1.1436406348
1.1434640772
1.1433156078
1.1432053638
1.1431409235
1.1431263955
1.1431616686
1.1432418215
1.1433565154
1.1434901625
1.1436226803
1.1437311682
1.1437936880
1.1442488833
1.2431873256
1.2438741397
1.2439053418
1.2439771753
1.2440724179
1.2441679367
1.2442339837
1.2442327542
1.2441189439
1.2438462068
1.2433652282
1.2426179183
1.2415497120
1.2401167535
1.2382911502
1.2360653029
1.2334542491
1.2304950423
1.2272442996
1.2237736314
1.2201635436
1.2164978576
1.2128583220
1.2093203081
1.2059502674
1.2028044983
1.1999286470
1.1973584671
1.1951208746
1.1932351083
1.1917143510
1.1905673044
1.1897992208
1.1894130323
1.1901896776
1.1494089323
1.1481812178
1.1481387943
1.1480548820
1.1479351974
1.1477879365
1.1476233932
1.1474536111
1.1472915012
1.1471501818
1.1470422459
1.1469787532
1.1469683458
1.1470161224
1.1471225385
1.1472823113
1.1474831531
1.1477052237
1.1479212234
1.1480978501
1.1482005417
1.1486421092
1.2420894723
1.2428069158
1.2428339867
1.2428904174
1.2429553790
1.2430047575
1.2430099968
1.2429359060
1.2427408783
1.2423851658
1.2418248119
1.2410038170
1.2398716345
1.2383888609
1.2365320369
1.2342974198
1.2317026080
1.2287852542
1.2256002714
1.2222152219
1.2187047595
1.2151457479
1.2116129149
1.2081753147
1.2048946683
1.2018240624
1.1990078922
1.1964823233
1.1942759329
1.1924103668
1.1909015762
1.1897609375
1.1889959783
1.1886112648
1.1895279603
1.1529466939
1.1518587351
1.1518195383
1.1517418174
1.1516312362
1.1514959721
1.1513464071
1.1511948883
1.1510549236
1.1509406012
1.1508659176
1.1508437422
1.1508848196
1.1509964020
1.1511807153
1.1514331931
1.1517402312
1.1520773897
1.1524080158
1.1526834563
1.1528480094
1.1532659775
1.2408652201
1.2416051105
1.2416424063
1.2417019743
1.2417544991
1.2417728570
1.2417297416
1.2415934406
1.2413286566
1.2409030789
1.2402784088
1.2394009083
1.2382244384
1.2367138504
1.2348495451
1.2326306046
1.2300760715
1.2272230829
1.2241238281
1.2208412562
1.2174439352
1.2140020220
1.2105835941
1.2072521238
1.2040651025
1.2010733177
1.1983201215
1.1958423098
1.1936701886
1.1918277992
1.1903336733
1.1892016703
1.1884414262
1.1880590077
1.1890980203
1.1565928874
1.1556503871
1.1556128264
1.1555380939
1.1554319104
1.1553026068
1.1551609024
1.1550197959
1.1548938575
1.1547987502
1.1547506554
1.1547652336
1.1548565457
1.1550354708
1.1553077145
1.1556712576
1.1561128014
1.1566039855
1.1570971442
1.1575219766
1.1577877936
1.1581715468
1.2394436656
1.2401996180
1.2402767034
1.2403758872
1.2404501687
1.2404662313
1.2403981505
1.2402187197
1.2399038378
1.2394291612
1.2387591699
1.2378449834
1.2366451626
1.2351290104
1.2332791856
1.2310976318
1.2286036348
1.2258327812
1.2228338930
1.2196648403
1.2163880363
1.2130676947
1.2097658959
1.2065411446
1.2034475634
1.2005338879
1.1978434914
1.1954136500
1.1932763952
1.1914581015
1.1899797751
1.1888574779
1.1881027586
1.1877230487
1.1888676142
1.1603042446
1.1595097404
1.1594723805
1.1593977283
1.1592916708
1.1591628599
1.1590225899
1.1588848420
1.1587656863
1.1586829347
1.1586557132
1.1587034698
1.1588449006
1.1590962762
1.1594691017
1.1599668459
1.1605799132
1.1612791093
1.1620064848
1.1626640312
1.1631053141
1.1634445615
1.2377277742
1.2384965361
1.2386724093
1.2388766645
1.2390298160
1.2390889831
1.2390320965
1.2388370935
1.2384979098
1.2379999859
1.2373060043
1.2363756393
1.2351720087
1.2336695200
1.2318542403
1.2297284008
1.2273106923
1.2246343791
1.2217444510
1.2186936343
1.2155389790
1.2123386973
1.2091496497
1.2060276012
1.2030231083
1.2001836772
1.1975523008
1.1951680246
1.1930641255
1.1912690940
1.1898062386
1.1886936947
1.1879446261
1.1875676703
1.1888022915
1.1640296409
1.1633821594
1.1633438363
1.1632668779
1.1631574364
1.1630246318
1.1628805353
1.1627403853
1.1626221088
1.1625461311
1.1625351551
1.1626132909
1.1628051347
1.1631342595
1.1636208713
1.1642782771
1.1651067907
1.1660842410
1.1671497933
1.1681776742
1.1689407620
1.1692270062
1.2355737845
1.2363572361
1.2367515774
1.2371737269
1.2374932627
1.2376577240
1.2376530115
1.2374773814
1.2371446127
1.2366509691
1.2359583044
1.2350345369
1.2338493283
1.2323792137
1.2306143306
1.2285566572
1.2262237960
1.2236463720
1.2208656924
1.2179301024
1.2148917088
1.2118043612
1.2087209319
1.2056927873
1.2027692746
1.1999969003
1.1974189714
1.1950751659
1.1930009672
1.1912269491
1.1897780969
1.1886743841
1.1879304827
1.1875560182
1.1888665936
1.1677102796
1.1672051180
1.1671650457
1.1670841264
1.1669688565
1.1668289331
1.1666773447
1.1665307652
1.1664091930
1.1663359301
1.1663376187
1.1664435742
1.1666852024
1.1670950519
1.1677051249
1.1685442187
1.1696324712
1.1709707835
1.1725180354
1.1741431560
1.1755314193
1.1757602292
1.2327437761
1.2335517894
1.2344112361
1.2352355240
1.2358440188
1.2361946716
1.2362983744
1.2361881303
1.2358994212
1.2354392075
1.2347724396
1.2338758006
1.2327251374
1.2313014632
1.2295954125
1.2276104030
1.2253627643
1.2228806830
1.2202021609
1.2173716667
1.2144373651
1.2114492713
1.2084572836
1.2055104815
1.2026568603
1.1999423333
1.1974104891
1.1951020158
1.1930535102
1.1912971242
1.1898599552
1.1887635107
1.1880237483
1.1876512245
1.1890250557
1.1712806618
1.1709093605
1.1708672193
1.1707815944
1.1706593759
1.1705108962
1.1703501166
1.1701951955
1.1700682210
1.1699953415
1.1700070743
1.1701378735
1.1704260396
1.1709137678
1.1716470303
1.1726757779
1.1740530918
1.1758304695
1.1780389271
1.1806288837
1.1833021523
1.1834768956
1.2288124471
1.2296692129
1.2315315564
1.2330610382
1.2341228012
1.2347533892
1.2350291576
1.2350364548
1.2348330677
1.2344283737
1.2338037671
1.2329457895
1.2318371960
1.2304632859
1.2288168684
1.2269016143
1.2247326702
1.2223360498
1.2197468812
1.2170063407
1.2141595219
1.2112537483
1.2083366625
1.2054558361
1.2026584128
1.1999901421
1.1974949735
1.1952143862
1.1931862414
1.1914440167
1.1900161635
1.1889254315
1.1881888314
1.1878177201
1.1892435144
1.1746705837
1.1744210985
1.1743770835
1.1742870206
1.1741582091
1.1740016138
1.1738321305
1.1736693029
1.1735370999
1.1734641332
1.1734841730
1.1736358567
1.1739630421
1.1745160307
1.1753537339
1.1765490848
1.1781993554
1.1804435477
1.1834853885
1.1876029163
1.1930569941
1.1931954104
1.2229767523
1.2239321791
1.2280210828
1.2307387140
1.2324447911
1.2334384778
1.2339319217
1.2340902312
1.2339968299
1.2336589604
1.2330840736
1.2322688307
1.2312029825
1.2298761867
1.2282834676
1.2264289093
1.2243265777
1.2220005348
1.2194835630
1.2168142961
1.2140355596
1.2111928225
1.2083322919
1.2055006308
1.2027446427
1.2001100735
1.1976412951
1.1953806428
1.1933668895
1.1916345322
1.1902130751
1.1891261840
1.1883916802
1.1880215579
1.1894892598
1.1778075045
1.1776645471
1.1776193687
1.1775261628
1.1773926160
1.1772302646
1.1770548098
1.1768869442
1.1767520993
1.1766806323
1.1767083755
1.1768761761
1.1772302070
1.1778237039
1.1787206486
1.1800066472
1.1818161334
1.1843979961
1.1882767131
1.1946518037
1.2063765520
1.2065231627
1.2135978157
1.2147497417
1.2239170619
1.2285188981
1.2310099167
1.2323841414
1.2331049363
1.2334164778
1.2334234801
1.2331515281
1.2326246487
1.2318488229
1.2308202879
1.2295327116
1.2279831415
1.2261760911
1.2241246823
1.2218513695
1.2193870970
1.2167686294
1.2140372655
1.2112374063
1.2084144884
1.2056148402
1.2028852659
1.2002717119
1.1978190604
1.1955702879
1.1935648341
1.1918379235
1.1904197924
1.1893347625
1.1886012300
1.1882316335
1.1897321672
1.1806194412
1.1805649922
1.1805198265
1.1804257167
1.1802906841
1.1801267265
1.1799501555
1.1797824856
1.1796500688
1.1795841040
1.1796209510
1.1798009328
1.1801673587
1.1807659256
1.1816428862
1.1828435865
1.1844101325
1.1863706881
1.1886998259
1.1911756034
1.1928734593
1.1834478361
1.1786052825
1.1985129561
1.2322229930
1.2263723214
1.2274724710
1.2292901226
1.2308564858
1.2319767546
1.2326927173
1.2330672422
1.2331254488
1.2328983883
1.2324083142
1.2316634623
1.2306635270
1.2294049089
1.2278861645
1.2261120839
1.2240949893
1.2218560406
1.2194248424
1.2168369010
1.2141326746
1.2113561606
1.2085526417
1.2057685734
1.2030510931
1.2004465350
1.1980002360
1.1957556628
1.1937526895
1.1920269853
1.1906092465
1.1895241763
1.1887905096
1.1884209700
1.1899461157
1.1830391550
1.1830530677
1.1830094528
1.1829174381
1.1827852995
1.1826253554
1.1824543033
1.1822941405
1.1821716436
1.1821181422
1.1821695253
1.1823642263
1.1827409370
1.1833359888
1.1841775234
1.1852773273
1.1866178956
1.1881255866
1.1896172977
1.1906903155
1.1904922692
1.1853328041
1.1804345727
1.1999372543
1.2196024728
1.2230874789
1.2260773421
1.2284863223
1.2302983396
1.2315835249
1.2324297187
1.2328943985
1.2330157736
1.2328351195
1.2323791105
1.2316604939
1.2306827113
1.2294446272
1.2279460998
1.2261922129
1.2241946501
1.2219736329
1.2195579083
1.2169823038
1.2142870554
1.2115163644
1.2087158961
1.2059326708
1.2032144623
1.2006081127
1.1981593907
1.1959121283
1.1939064247
1.1921781529
1.1907581984
1.1896713932
1.1889366020
1.1885666843
1.1901089301
1.1850079279
1.1850685638
1.1850282590
1.1849418339
1.1848177174
1.1846683864
1.1845106898
1.1843667844
1.1842634625
1.1842317059
1.1843064498
1.1845239453
1.1849186331
1.1855196145
1.1863434310
1.1873850960
1.1886074802
1.1899251407
1.1911871429
1.1921683155
1.1925902270
1.1917136488
1.1925556351
1.2036914174
1.2156347225
1.2210593068
1.2248659021
1.2277067221
1.2297927217
1.2312764011
1.2322645387
1.2328220252
1.2330107119
1.2328790347
1.2324587271
1.2317666152
1.2308094665
1.2295882939
1.2281040253
1.2263619692
1.2243733731
1.2221578762
1.2197438459
1.2171660003
1.2144649371
1.2116856233
1.2088746229
1.2060799274
1.2033502279
1.2007330122
1.1982744996
1.1960187799
1.1940060191
1.1922720724
1.1908477754
1.1897578670
1.1890211541
1.1886504930
1.1902028782
1.1864786801
1.1865635769
1.1865283953
1.1864512286
1.1863405392
1.1862087847
1.1860727258
1.1859543697
1.1858801716
1.1858804221
1.1859888624
1.1862396572
1.1866638500
1.1872856782
1.1881153483
1.1891414609
1.1903253919
1.1915965239
1.1928593163
1.1940273997
1.1951003777
1.1961793905
1.1988895002
1.2062671312
1.2144375780
1.2199199311
1.2239819315
1.2270534877
1.2293435570
1.2309921882
1.2320989996
1.2327479337
1.2330083192
1.2329327219
1.2325558642
1.2318974263
1.2309665893
1.2297657285
1.2282964174
1.2265640897
1.2245797174
1.2223627176
1.2199415648
1.2173514405
1.2146338882
1.2118351963
1.2090033339
1.2061876557
1.2034380703
1.2008028934
1.1983288375
1.1960601958
1.1940370691
1.1922951176
1.1908649206
1.1897709329
1.1890317361
1.1886600552
1.1902160251
1.1874197931
1.1875062749
1.1874779169
1.1874135243
1.1873214603
1.1872139787
1.1871075122
1.1870236201
1.1869880982
1.1870302565
1.1871824628
1.1874769024
1.1879418670
1.1885982009
1.1894524622
1.1904908541
1.1916774934
1.1929566598
1.1942711526
1.1956085666
1.1970757483
1.1989629137
1.2021689443
1.2077898627
1.2140776343
1.2192046263
1.2232708028
1.2264424027
1.2288540961
1.2306171490
1.2318262018
1.2325661073
1.2329062976
1.2328992629
1.2325803491
1.2319702965
1.2310790092
1.2299092646
1.2284627011
1.2267446553
1.2247659442
1.2225461088
1.2201142181
1.2175065026
1.2147660485
1.2119410265
1.2090813195
1.2062380159
1.2034625979
1.2008044132
1.1983107508
1.1960260861
1.1939903681
1.1922389155
1.1908018807
1.1897032695
1.1889612900
1.1885884180
1.1901417273
1.1878172563
1.1878829776
1.1878628839
1.1878143284
1.1877454418
1.1876680939
1.1875981639
1.1875564859
1.1875679049
1.1876604966
1.1878650858
1.1882119125
1.1887268567
1.1894279846
1.1903189171
1.1913834788
1.1925857315
1.1938751346
1.1952090321
1.1966016748
1.1981911011
1.2002914958
1.2035067845
1.2083290181
1.2137465405
1.2185635034
1.2225553006
1.2257470480
1.2282182836
1.2300591563
1.2313573587
1.2321905749
1.2326221261
1.2327007304
1.2324597123
1.2319184298
1.2310858757
1.2299639817
1.2285537358
1.2268600500
1.2248936536
1.2226745260