<VTKFile type="UnstructuredGrid" version="0.1">
	<UnstructuredGrid>
		<Piece NumberOfPoints="13548" NumberOfCells="3387">
			<CellData>
				<DataArray type="Int32" Name="ghost" NumberOfComponents="1" Format="ascii">
1
1
1
1
1
1
1
1
1
1
1
1
1
1
1
1
1
1
1
1
1
1
1
1
1
1
1
1
1
1
1
1
1
1
1
1
1
1
1
1
1
1
1
1
1
1
1
1
1
1
1
1
1
1
1
1
1
1
0
0
0
0
0
0
0
0
0
0
0
0
0
0
0
0
0
0
0
0
1
1
0
0
0
0
0
0
0
0
0
0
0
0
0
0
0
0
0
0
0
0
0
0
0
0
0
0
0
0
0
0
0
0
0
1
1
0
0
0
0
0
0
0
0
0
0
0
0
0
0
0
0
0
0
0
0
1
1
0
0
0
0
0
0
0
0
0
0
0
0
0
0
0
0
0
0
0
0
0
0
0
0
0
0
0
0
0
0
0
0
0
1
1
0
0
0
0
0
0
0
0
0
0
0
0
0
0
0
0
0
0
0
0
1
1
0
0
0
0
0
0
0
0
0
0
0
0
0
0
0
0
0
0
0
0
0
0
0
0
0
0
0
0
0
0
0
0
0
1
1
0
0
0
0
0
0
0
0
0
0
0
0
0
0
0
0
0
0
0
0
1
1
0
0
0
0
0
0
0
0
0
0
0
0
0
0
0
0
0
0
0
0
0
0
0
0
0
0
0
0
0
0
0
0
0
1
1
0
0
0
0
0
0
0
0
0
0
0
0
0
0
0
0
0
0
0
0
1
1
0
0
0
0
0
0
0
0
0
0
0
0
0
0
0
0
0
0
0
0
0
0
0
0
0
0
0
0
0
0
0
0
0
1
1
0
0
0
0
0
0
0
0
0
0
0
0
0
0
0
0
0
0
0
0
1
1
0
0
0
0
0
0
0
0
0
0
0
0
0
0
0
0
0
0
0
0
0
0
0
0
0
0
0
0
0
0
0
0
0
1
1
0
0
0
0
0
0
0
0
0
0
0
0
0
0
0
0
0
0
0
0
1
1
0
0
0
0
0
0
0
0
0
0
0
0
0
0
0
0
0
0
0
0
0
0
0
0
0
0
0
0
0
0
0
0
0
1
1
0
0
0
0
0
0
0
0
0
0
0
0
0
0
0
0
0
0
0
0
1
1
0
0
0
0
0
0
0
0
0
0
0
0
0
0
0
0
0
0
0
0
0
0
0
0
0
0
0
0
0
0
0
0
0
1
1
0
0
0
0
0
0
0
0
0
0
0
0
0
0
0
0
0
0
0
0
1
1
0
0
0
0
0
0
0
0
0
0
0
0
0
0
0
0
0
0
0
0
0
0
0
0
0
0
0
0
0
0
0
0
0
1
1
0
0
0
0
0
0
0
0
0
0
0
0
0
0
0
0
0
0
0
0
1
1
0
0
0
0
0
0
0
0
0
0
0
0
0
0
0
0
0
0
0
0
0
0
0
0
0
0
0
0
0
0
0
0
0
1
1
0
0
0
0
0
0
0
0
0
0
0
0
0
0
0
0
0
0
0
0
1
1
0
0
0
0
0
0
0
0
0
0
0
0
0
0
0
0
0
0
0
0
0
0
0
0
0
0
0
0
0
0
0
0
0
1
1
0
0
0
0
0
0
0
0
0
0
0
0
0
0
0
0
0
0
0
0
1
1
0
0
0
0
0
0
0
0
0
0
0
0
0
0
0
0
0
0
0
0
0
0
0
0
0
0
0
0
0
0
0
0
0
1
1
0
0
0
0
0
0
0
0
0
0
0
0
0
0
0
0
0
0
0
0
1
1
0
0
0
0
0
0
0
0
0
0
0
0
0
0
0
0
0
0
0
0
0
0
0
0
0
0
0
0
0
0
0
0
0
1
1
0
0
0
0
0
0
0
0
0
0
0
0
0
0
0
0
0
0
0
0
1
1
0
0
0
0
0
0
0
0
0
0
0
0
0
0
0
0
0
0
0
0
0
0
0
0
0
0
0
0
0
0
0
0
0
1
1
0
0
0
0
0
0
0
0
0
0
0
0
0
0
0
0
0
0
0
0
1
1
0
0
0
0
0
0
0
0
0
0
0
0
0
0
0
0
0
0
0
0
0
0
0
0
0
0
0
0
0
0
0
0
0
1
1
0
0
0
0
0
0
0
0
0
0
0
0
0
0
0
0
0
0
0
0
1
1
0
0
0
0
0
0
0
0
0
0
0
0
0
0
0
0
0
0
0
0
0
0
0
0
0
0
0
0
0
0
0
0
0
1
1
0
0
0
0
0
0
0
0
0
0
0
0
0
0
0
0
0
0
0
0
1
1
0
0
0
0
0
0
0
0
0
0
0
0
0
0
0
0
0
0
0
0
0
0
0
0
0
0
0
0
0
0
0
0
0
1
1
0
0
0
0
0
0
0
0
0
0
0
0
0
0
0
0
0
0
0
0
1
1
0
0
0
0
0
0
0
0
0
0
0
0
0
0
0
0
0
0
0
0
0
0
0
0
0
0
0
0
0
0
0
0
0
1
1
0
0
0
0
0
0
0
0
0
0
0
0
0
0
0
0
0
0
0
0
1
1
0
0
0
0
0
0
0
0
0
0
0
0
0
0
0
0
0
0
0
0
0
0
0
0
0
0
0
0
0
0
0
0
0
1
1
0
0
0
0
0
0
0
0
0
0
0
0
0
0
0
0
0
0
0
0
1
1
0
0
0
0
0
0
0
0
0
0
0
0
0
0
0
0
0
0
0
0
0
0
0
0
0
0
0
0
0
0
0
0
0
1
1
0
0
0
0
0
0
0
0
0
0
0
0
0
0
0
0
0
0
0
0
1
1
0
0
0
0
0
0
0
0
0
0
0
0
0
0
0
0
0
0
0
0
0
0
0
0
0
0
0
0
0
0
0
0
0
1
1
0
0
0
0
0
0
0
0
0
0
0
0
0
0
0
0
0
0
0
0
1
1
0
0
0
0
0
0
0
0
0
0
0
0
0
0
0
0
0
0
0
0
0
0
0
0
0
0
0
0
0
0
0
0
0
1
1
0
0
0
0
0
0
0
0
0
0
0
0
0
0
0
0
0
0
0
0
1
1
0
0
0
0
0
0
0
0
0
0
0
0
0
0
0
0
0
0
0
0
0
0
0
0
0
0
0
0
0
0
0
0
0
1
1
0
0
0
0
0
0
0
0
0
0
0
0
0
0
0
0
0
0
0
0
1
1
0
0
0
0
0
0
0
0
0
0
0
0
0
0
0
0
0
0
0
0
0
0
0
0
0
0
0
0
0
0
0
0
0
1
1
0
0
0
0
0
0
0
0
0
0
0
0
0
0
0
0
0
0
0
0
0
1
1
0
0
0
0
0
0
0
0
0
0
0
0
0
0
0
0
0
0
0
0
0
0
0
0
0
0
0
0
0
0
0
0
0
0
1
1
0
0
0
0
0
0
0
0
0
0
0
0
0
0
0
0
0
0
0
0
0
0
0
0
0
0
0
0
0
0
0
0
0
0
0
0
0
0
0
0
0
0
0
0
0
0
0
0
0
0
0
0
0
0
0
0
0
1
1
0
0
0
0
0
0
0
0
0
0
0
0
0
0
0
0
0
0
0
0
0
0
0
0
0
0
0
0
0
0
0
0
0
0
0
0
0
0
0
0
0
0
0
0
0
0
0
0
0
0
0
0
0
0
0
0
0
1
1
0
0
0
0
0
0
0
0
0
0
0
0
0
0
0
0
0
0
0
0
0
0
0
0
0
0
0
0
0
0
0
0
0
0
0
0
0
0
0
0
0
0
0
0
0
0
0
0
0
0
0
0
0
0
0
0
0
1
1
0
0
0
0
0
0
0
0
0
0
0
0
0
0
0
0
0
0
0
0
0
0
0
0
0
0
0
0
0
0
0
0
0
0
0
0
0
0
0
0
0
0
0
0
0
0
0
0
0
0
0
0
0
0
0
0
0
1
1
0
0
0
0
0
0
0
0
0
0
0
0
0
0
0
0
0
0
0
0
0
0
0
0
0
0
0
0
0
0
0
0
0
0
0
0
0
0
0
0
0
0
0
0
0
0
0
0
0
0
0
0
0
0
0
0
0
1
1
0
0
0
0
0
0
0
0
0
0
0
0
0
0
0
0
0
0
0
0
0
0
0
0
0
0
0
0
0
0
0
0
0
0
0
0
0
0
0
0
0
0
0
0
0
0
0
0
0
0
0
0
0
0
0
0
0
1
1
0
0
0
0
0
0
0
0
0
0
0
0
0
0
0
0
0
0
0
0
0
0
0
0
0
0
0
0
0
0
0
0
0
0
0
0
0
0
0
0
0
0
0
0
0
0
0
0
0
0
0
0
0
0
0
0
0
1
1
0
0
0
0
0
0
0
0
0
0
0
0
0
0
0
0
0
0
0
0
0
0
0
0
0
0
0
0
0
0
0
0
0
0
0
0
0
0
0
0
0
0
0
0
0
0
0
0
0
0
0
0
0
0
0
0
0
1
1
0
0
0
0
0
0
0
0
0
0
0
0
0
0
0
0
0
0
0
0
0
0
0
0
0
0
0
0
0
0
0
0
0
0
0
0
0
0
0
0
0
0
0
0
0
0
0
0
0
0
0
0
0
0
0
0
0
1
1
0
0
0
0
0
0
0
0
0
0
0
0
0
0
0
0
0
0
0
0
0
0
0
0
0
0
0
0
0
0
0
0
0
0
0
0
0
0
0
0
0
0
0
0
0
0
0
0
0
0
0
0
0
0
0
0
0
1
1
0
0
0
0
0
0
0
0
0
0
0
0
0
0
0
0
0
0
0
0
0
1
1
0
0
0
0
0
0
0
0
0
0
0
0
0
0
0
0
0
0
0
0
0
0
0
0
0
0
0
0
0
0
0
0
0
0
1
1
0
0
0
0
0
0
0
0
0
0
0
0
0
0
0
0
0
0
0
0
1
1
0
0
0
0
0
0
0
0
0
0
0
0
0
0
0
0
0
0
0
0
0
0
0
0
0
0
0
0
0
0
0
0
0
1
1
0
0
0
0
0
0
0
0
0
0
0
0
0
0
0
0
0
0
0
0
1
1
0
0
0
0
0
0
0
0
0
0
0
0
0
0
0
0
0
0
0
0
0
0
0
0
0
0
0
0
0
0
0
0
0
1
1
0
0
0
0
0
0
0
0
0
0
0
0
0
0
0
0
0
0
0
0
1
1
0
0
0
0
0
0
0
0
0
0
0
0
0
0
0
0
0
0
0
0
0
0
0
0
0
0
0
0
0
0
0
0
0
1
1
0
0
0
0
0
0
0
0
0
0
0
0
0
0
0
0
0
0
0
0
1
1
0
0
0
0
0
0
0
0
0
0
0
0
0
0
0
0
0
0
0
0
0
0
0
0
0
0
0
0
0
0
0
0
0
1
1
0
0
0
0
0
0
0
0
0
0
0
0
0
0
0
0
0
0
0
0
1
1
0
0
0
0
0
0
0
0
0
0
0
0
0
0
0
0
0
0
0
0
0
0
0
0
0
0
0
0
0
0
0
0
0
1
1
0
0
0
0
0
0
0
0
0
0
0
0
0
0
0
0
0
0
0
0
1
1
0
0
0
0
0
0
0
0
0
0
0
0
0
0
0
0
0
0
0
0
0
0
0
0
0
0
0
0
0
0
0
0
0
1
1
0
0
0
0
0
0
0
0
0
0
0
0
0
0
0
0
0
0
0
0
1
1
0
0
0
0
0
0
0
0
0
0
0
0
0
0
0
0
0
0
0
0
0
0
0
0
0
0
0
0
0
0
0
0
0
1
1
0
0
0
0
0
0
0
0
0
0
0
0
0
0
0
0
0
0
0
0
1
1
0
0
0
0
0
0
0
0
0
0
0
0
0
0
0
0
0
0
0
0
0
0
0
0
0
0
0
0
0
0
0
0
0
1
1
0
0
0
0
0
0
0
0
0
0
0
0
0
0
0
0
0
0
0
0
1
1
0
0
0
0
0
0
0
0
0
0
0
0
0
0
0
0
0
0
0
0
0
0
0
0
0
0
0
0
0
0
0
0
0
1
1
0
0
0
0
0
0
0
0
0
0
0
0
0
0
0
0
0
0
0
0
1
1
0
0
0
0
0
0
0
0
0
0
0
0
0
0
0
0
0
0
0
0
0
0
0
0
0
0
0
0
0
0
0
0
0
1
1
0
0
0
0
0
0
0
0
0
0
0
0
0
0
0
0
0
0
0
0
1
1
0
0
0
0
0
0
0
0
0
0
0
0
0
0
0
0
0
0
0
0
0
0
0
0
0
0
0
0
0
0
0
0
0
1
1
0
0
0
0
0
0
0
0
0
0
0
0
0
0
0
0
0
0
0
0
1
1
0
0
0
0
0
0
0
0
0
0
0
0
0
0
0
0
0
0
0
0
0
0
0
0
0
0
0
0
0
0
0
0
0
1
1
0
0
0
0
0
0
0
0
0
0
0
0
0
0
0
0
0
0
0
0
1
1
0
0
0
0
0
0
0
0
0
0
0
0
0
0
0
0
0
0
0
0
0
0
0
0
0
0
0
0
0
0
0
0
0
1
1
0
0
0
0
0
0
0
0
0
0
0
0
0
0
0
0
0
0
0
0
1
1
0
0
0
0
0
0
0
0
0
0
0
0
0
0
0
0
0
0
0
0
0
0
0
0
0
0
0
0
0
0
0
0
0
1
1
0
0
0
0
0
0
0
0
0
0
0
0
0
0
0
0
0
0
0
0
1
1
0
0
0
0
0
0
0
0
0
0
0
0
0
0
0
0
0
0
0
0
0
0
0
0
0
0
0
0
0
0
0
0
0
1
1
0
0
0
0
0
0
0
0
0
0
0
0
0
0
0
0
0
0
0
0
1
1
0
0
0
0
0
0
0
0
0
0
0
0
0
0
0
0
0
0
0
0
0
0
0
0
0
0
0
0
0
0
0
0
0
1
1
0
0
0
0
0
0
0
0
0
0
0
0
0
0
0
0
0
0
0
0
1
1
0
0
0
0
0
0
0
0
0
0
0
0
0
0
0
0
0
0
0
0
0
0
0
0
0
0
0
0
0
0
0
0
0
1
1
0
0
0
0
0
0
0
0
0
0
0
0
0
0
0
0
0
0
0
0
1
1
0
0
0
0
0
0
0
0
0
0
0
0
0
0
0
0
0
0
0
0
0
0
0
0
0
0
0
0
0
0
0
0
0
1
1
0
0
0
0
0
0
0
0
0
0
0
0
0
0
0
0
0
0
0
0
1
1
0
0
0
0
0
0
0
0
0
0
0
0
0
0
0
0
0
0
0
0
0
0
0
0
0
0
0
0
0
0
0
0
0
1
1
0
0
0
0
0
0
0
0
0
0
0
0
0
0
0
0
0
0
0
0
1
1
0
0
0
0
0
0
0
0
0
0
0
0
0
0
0
0
0
0
0
0
0
0
0
0
0
0
0
0
0
0
0
0
0
1
1
0
0
0
0
0
0
0
0
0
0
0
0
0
0
0
0
0
0
0
0
1
1
0
0
0
0
0
0
0
0
0
0
0
0
0
0
0
0
0
0
0
0
0
0
0
0
0
0
0
0
0
0
0
0
0
1
1
1
1
1
1
1
1
1
1
1
1
1
1
1
1
1
1
1
1
1
1
1
1
1
1
1
1
1
1
1
1
1
1
1
1
1
1
1
1
1
1
1
1
1
1
1
1
1
1
1
1
1
1
1
1
1
1
				</DataArray>
				<DataArray type="Float64" Name="h" NumberOfComponents="1" Format="ascii">
1.2137450365
1.2135750393
1.2136208118
1.2137109089
1.2138432378
1.2140146944
1.2142212286
1.2144580110
1.2147194462
1.2149992970
1.2152908654
1.2155870965
1.2158807494
1.2161645655
1.2164314539
1.2166746861
1.2168880215
1.2170659425
1.2172038253
1.2172979837
1.2173458849
1.2173458849
1.1750880224
1.1738123797
1.1738983425
1.1740714967
1.1743339241
1.1746887635
1.1751401140
1.1756928550
1.1763525471
1.1771250929
1.1780163426
1.1790317467
1.1801758326
1.1814517642
1.1828609072
1.1844021978
1.1860716748
1.1878620357
1.1897620945
1.1917565407
1.1938258007
1.1959460273
1.1980894706
1.2002251259
1.2023193584
1.2043369174
1.2062420619
1.2079995433
1.2095758648
1.2109403883
1.2120661436
1.2129307263
1.2135168980
1.2138129363
1.2138129363
1.2135750393
1.2133513907
1.2134073273
1.2135175284
1.2136794404
1.2138892776
1.2141420937
1.2144319620
1.2147520148
1.2150945882
1.2154514378
1.2158138866
1.2161730329
1.2165199687
1.2168460163
1.2171429608
1.2174032228
1.2176201274
1.2177880972
1.2179027197
1.2179609734
1.2173458849
1.1738123797
1.1725784936
1.1726728800
1.1728628459
1.1731503875
1.1735385192
1.1740311675
1.1746329664
1.1753491380
1.1761851268
1.1771461931
1.1782370794
1.1794614865
1.1808216268
1.1823177977
1.1839477458
1.1857062054
1.1875845031
1.1895700455
1.1916461380
1.1937919753
1.1959825943
1.1981893138
1.2003804782
1.2025221138
1.2045789842
1.2065156916
1.2082976242
1.2098921586
1.2112696666
1.2124042240
1.2132744178
1.2138638424
1.2141613581
1.2138129363
1.2131504896
1.2129384029
1.2129957875
1.2131088673
1.2132750503
1.2134904902
1.2137501551
1.2140480044
1.2143770265
1.2147293809
1.2150966149
1.2154698130
1.2158398083
1.2161974083
1.2165336398
1.2168399924
1.2171086026
1.2173325356
1.2175059896
1.2176243734
1.2176845415
1.2170631704
1.1739722988
1.1727402281
1.1728343244
1.1730237184
1.1733104282
1.1736974986
1.1741888899
1.1747892729
1.1755039054
1.1763382665
1.1772976507
1.1783868328
1.1796095404
1.1809680050
1.1824625359
1.1840908750
1.1858477505
1.1877244649
1.1897083870
1.1917828045
1.1939268504
1.1961155309
1.1983201158
1.2005089481
1.2026480553
1.2047022321
1.2066361420
1.2084152554
1.2100070528
1.2113820255
1.2125143710
1.2133827887
1.2139709687
1.2142678433
1.2139125383
1.2123087364
1.2121189270
1.2121791740
1.2122979432
1.2124725649
1.2126990715
1.2129722587
1.2132858584
1.2136325722
1.2140042092
1.2143919037
1.2147862695
1.2151776170
1.2155561941
1.2159124484
1.2162372897
1.2165222991
1.2167600342
1.2169442546
1.2170700212
1.2171339464
1.2165003958
1.1742850157
1.1730569578
1.1731505856
1.1733390530
1.1736244133
1.1740097565
1.1744990947
1.1750971518
1.1758092368
1.1766408773
1.1775974172
1.1786836766
1.1799034213
1.1812589146
1.1827504732
1.1843758436
1.1861297233
1.1880033822
1.1899841412
1.1920552057
1.1941956480
1.1963804187
1.1985807266
1.2007648920
1.2028989683
1.2049478013
1.2068761747
1.2086497230
1.2102361270
1.2116061056
1.2127340943
1.2135990147
1.2141847453
1.2144803579
1.2141115852
1.2110637326
1.2109055711
1.2109700160
1.2110971276
1.2112841191
1.2115268393
1.2118198266
1.2121564736
1.2125290567
1.2129288677
1.2133464341
1.2137716800
1.2141941532
1.2146032869
1.2149886879
1.2153404259
1.2156492789
1.2159070718
1.2161069327
1.2162434213
1.2163128022
1.2156617002
1.1747519167
1.1735303035
1.1736232457
1.1738103571
1.1740937415
1.1744765544
1.1749628802
1.1755575188
1.1762658501
1.1770934689
1.1780457851
1.1791276788
1.1803429703
1.1816939597
1.1831809867
1.1848017856
1.1865510363
1.1884199512
1.1903957796
1.1924616305
1.1945964834
1.1967752221
1.1989689742
1.2011460272
1.2032724790
1.2053132745
1.2072333495
1.2089985864
1.2105769556
1.2119395087
1.2130610281
1.2139207603
1.2145028597
1.2147966026
1.2144084263
1.2094365076
1.2093174474
1.2093873080
1.2095251791
1.2097281167
1.2099917254
1.2103102025
1.2106764939
1.2110823194
1.2115182981
1.2119741720
1.2124389771
1.2129012827
1.2133494812
1.2137721086
1.2141581689
1.2144974232
1.2147807722
1.2150005494
1.2151506855
1.2152270094
1.2145537803
1.1753745790
1.1741621752
1.1742541621
1.1744393857
1.1747200203
1.1750993121
1.1755814461
1.1761713259
1.1768744291
1.1776964405
1.1786428557
1.1797186361
1.1809276670
1.1822723029
1.1837529111
1.1853672206
1.1871098858
1.1889720635
1.1909409000
1.1929994110
1.1951264521
1.1972968087
1.1994815454
1.2016489116
1.2037650525
1.2057950450
1.2077040475
1.2094582326
1.2110259550
1.2123786969
1.2134916882
1.2143445922
1.2149219184
1.2152132052
1.2148006377
1.2074550939
1.2073802366
1.2074565749
1.2076073115
1.2078293060
1.2081178599
1.2084667494
1.2088683731
1.2093137735
1.2097927560
1.2102941185
1.2108058355
1.2113153132
1.2118097126
1.2122763088
1.2127028563
1.2130779305
1.2133913584
1.2136345556
1.2138007294
1.2138852098
1.2131863343
1.1761545134
1.1749544848
1.1750451790
1.1752278516
1.1755047743
1.1758793172
1.1763558019
1.1769392726
1.1776353380
1.1784497994
1.1793882662
1.1804558012
1.1816563758
1.1829924075
1.1844643075
1.1860698168
1.1878035424
1.1896566010
1.1916160485
1.1936647403
1.1957814403
1.1979408261
1.2001138726
1.2022688224
1.2043718607
1.2063882303
1.2082833489
1.2100237629
1.2115782810
1.2129188994
1.2140213791
1.2148658842
1.2154373478
1.2157256206
1.2152848959
1.2051539785
1.2051258305
1.2052095193
1.2053748499
1.2056184487
1.2059352590
1.2063185623
1.2067601191
1.2072501870
1.2077776354
1.2083301830
1.2088945985
1.2094569748
1.2100030915
1.2105188178
1.2109905241
1.2114054821
1.2117523478
1.2120215438
1.2122055020
1.2122990222
1.2115722570
1.1770934175
1.1759093507
1.1759983253
1.1761776112
1.1764496142
1.1768178733
1.1772868940
1.1778619089
1.1785486979
1.1793532185
1.1802812197
1.1813378927
1.1825273240
1.1838520074
1.1853124050
1.1869062861
1.1886282750
1.1904693453
1.1924165226
1.1944525371
1.1965560157
1.1987014984
1.2008599550
1.2029995590
1.2050865733
1.2070864193
1.2089648332
1.2106887854
1.2122276026
1.2135538644
1.2146439394
1.2154785567
1.2160431303
1.2163278649
1.2158566768
1.2025734163
1.2025918251
1.2026835237
1.2028647520
1.2031318701
1.2034794138
1.2039001054
1.2043849879
1.2049234432
1.2055033017
1.2061110932
1.2067322667
1.2073514874
1.2079530450
1.2085213053
1.2090411730
1.2094985548
1.2098808978
1.2101776156
1.2103803659
1.2104834283
1.2097279912
1.1781923745
1.1770282624
1.1771149796
1.1772898319
1.1775554103
1.1779154848
1.1783748092
1.1789388626
1.1796136518
1.1804053358
1.1813198361
1.1823624997
1.1835375454
1.1848476037
1.1862931677
1.1878720618
1.1895789001
1.1914046775
1.1933362790
1.1953562596
1.1974432480
1.1995716248
1.2017122828
1.2038334297
1.2059013736
1.2078817510
1.2097406410
1.2114454901
1.2129661954
1.2142759770
1.2153518639
1.2161752043
1.2167319375
1.2170126524
1.2165103367
1.1997586988
1.1998209914
1.1999211324
1.2001191120
1.2004109957
1.2007908703
1.2012508452
1.2017811805
1.2023703074
1.2030049356
1.2036703201
1.2043505045
1.2050286461
1.2056874758
1.2063098045
1.2068790428
1.2073797330
1.2077981425
1.2081227306
1.2083444497
1.2084571251
1.2076738131
1.1794514226
1.1783115988
1.1783953820
1.1785644918
1.1788217802
1.1791713366
1.1796182485
1.1801683204
1.1808278515
1.1816032468
1.1825006696
1.1835256172
1.1846824783
1.1859740129
1.1874008682
1.1889608977
1.1906486607
1.1924552367
1.1943674144
1.1963676916
1.1984345398
1.2005422489
1.2026617160
1.2047611044
1.2068068279
1.2087647583
1.2106013410
1.2122845303
1.2137848331
1.2150761463
1.2161362009
1.2169469944
1.2174950239
1.2177712854
1.2172389318
1.1967587030
1.1968600211
1.1969688111
1.1971839471
1.1975011782
1.1979141096
1.1984141955
1.1989908617
1.1996315301
1.2003217261
1.2010453648
1.2017850224
1.2025222955
1.2032383205
1.2039143425
1.2045323006
1.2050754360
1.2055289407
1.2058804598
1.2061203979
1.2062422698
1.2054334771
1.1808696853
1.1797586992
1.1798386886
1.1800004085
1.1802470871
1.1805832614
1.1810144730
1.1815469541
1.1821873640
1.1829424280
1.1838185523
1.1848215124
1.1859558055
1.1872243382
1.1886279310
1.1901645409
1.1918288999
1.1936119882
1.1955004277
1.1974767708
1.1995194785
1.2016026876
1.2036972319
1.2057713854
1.2077916801
1.2097241913
1.2115357492
1.2131948335
1.2146725814
1.2159435924
1.2169863192
1.2177834356
1.2183220078
1.2185934468
1.2180339436
1.1936244319
1.1937582040
1.1938756411
1.1941079263
1.1944504764
1.1948963916
1.1954364396
1.1960591730
1.1967509584
1.1974960872
1.1982770827
1.1990750067
1.1998698585
1.2006411658
1.2013686270
1.2020327753
1.2026156751
1.2031016316
1.2034777214
1.2037340787
1.2038641660
1.2030338116
1.1824445677
1.1813670259
1.1814421201
1.1815943661
1.1818275481
1.1821468443
1.1825584192
1.1830690559
1.1836858705
1.1844159373
1.1852659709
1.1862419704
1.1873487159
1.1885893688
1.1899647241
1.1914729618
1.1931088817
1.1948634830
1.1967235163
1.1986714096
1.2006856610
1.2027402912
1.2048061284
1.2068515056
1.2088431183
1.2107472790
1.2125312001
1.2141638892
1.2156171150
1.2168661808
1.2178902662
1.2186727188
1.2192011773
1.2194674712
1.2188854274
1.1904077242
1.1905662357
1.1906921422
1.1909412218
1.1913085491
1.1917867040
1.1923657456
1.1930333232
1.1937747109
1.1945729215
1.1954090394
1.1962625653
1.1971118662
1.1979348505
1.1987097005
1.1994156380
1.2000337304
1.2005476758
1.2009443608
1.2012140959
1.2013507283
1.2005040801
1.1841712929
1.1831316669
1.1832004314
1.1833405353
1.1835566088
1.1838547525
1.1842419836
1.1847258098
1.1853139165
1.1860137692
1.1868324245
1.1877761268
1.1888499113
1.1900570997
1.1913988158
1.1928733103
1.1944754888
1.1961964467
1.1980230029
1.1999376127
1.2019188412
1.2039406448
1.2059738555
1.2079868800
1.2099465973
1.2118195878
1.2135734289
1.2151776413
1.2166046076
1.2178303176
1.2188346599
1.2196016405
1.2201194578
1.2203803507
1.2197819400
1.1871594136
1.1873344164
1.1874684827
1.1877337418
1.1881249214
1.1886340720
1.1892505293
1.1899610140
1.1907496724
1.1915981931
1.1924861646
1.1933914666
1.1942907785
1.1951603571
1.1959768851
1.1967183694
1.1973650993
1.1979005386
1.1983119294
1.1985904483
1.1987310525
1.1978744525
1.1860430716
1.1850454736
1.1851059688
1.1852304249
1.1854248044
1.1856965685
1.1860539067
1.1865052403
1.1870588922
1.1877228125
1.1885043699
1.1894100979
1.1904452145
1.1916132579
1.1929155517
1.1943505394
1.1959133102
1.1975951188
1.1993829060
1.2012592129
1.2032027185
1.2051873778
1.2071840468
1.2091612268
1.2110859782
1.2129251481
1.2146466889
1.2162205973
1.2176198343
1.2188210385
1.2198047724
1.2205556668
1.2210624533
1.2213177618
1.2207104581
1.1839278671
1.1841111592
1.1842529982
1.1845336696
1.1849475535
1.1854861670
1.1861381108
1.1868891528
1.1877222728
1.1886177778
1.1895536829
1.1905061517
1.1914500754
1.1923599723
1.1932109858
1.1939799652
1.1946466432
1.1951947051
1.1956124977
1.1958931088
1.1960338136
1.1951743425
1.1880507141
1.1870986817
1.1871481736
1.1872522465
1.1874190244
1.1876579982
1.1879789539
1.1883914328
1.1889044695
1.1895264391
1.1902649901
1.1911268349
1.1921173711
1.1932403412
1.1944972867
1.1958868892
1.1974044840
1.1990415482
1.2007852162
1.2026181794
1.2045192871
1.2064625541
1.2084189084
1.2103569480
1.2122439078
1.2140468978
1.2157342138
1.2172763054
1.2186466571
1.2198225022
1.2207850240
1.2215194296
1.2220149446
1.2222645634
1.2216567791
1.1807580174
1.1809419525
1.1810911563
1.1813864336
1.1818218188
1.1823882946
1.1830737175
1.1838628781
1.1847375421
1.1856765597
1.1866562605
1.1876509448
1.1886335391
1.1895766379
1.1904536918
1.1912403402
1.1919159129
1.1924648099
1.1928774600
1.1931504202
1.1932853127
1.1924304171
1.1901827831
1.1892790957
1.1893135466
1.1893906347
1.1895220594
1.1897203296
1.1899973552
1.1903639734
1.1908298916
1.1914037779
1.1920934013
1.1929055388
1.1938456936
1.1949177784
1.1961235684
1.1974620265
1.1989287968
1.2005156559
1.2022100094
1.2039948351
1.2058490236
1.2077469030
1.2096594469
1.2115553730
1.2134020847
1.2151669145
1.2168184755
1.2183276149
1.2196682862
1.2208182484
1.2217592384
1.2224769786
1.2229611389
1.2232050440
1.2226056938
1.1776901390
1.1778680226
1.1780242159
1.1783333566
1.1787891387
1.1793820132
1.1800990883
1.1809241506
1.1818376986
1.1828170295
1.1838366353
1.1848687375
1.1858840185
1.1868528144
1.1877465387
1.1885393464
1.1892101154
1.1897443678
1.1901357852
1.1903866503
1.1905063514
1.1896634721
1.1924267227
1.1915732646
1.1915863140
1.1916268071
1.1917124301
1.1918601326
1.1920845203
1.1923977583
1.1928099916
1.1933298714
1.1939650032
1.1947220284
1.1956064229
1.1966222236
1.1977714448
1.1990533764
1.2004640451
1.2019956109
1.2036358414
1.2053681743
1.2071713023
1.2090202147
1.2108858888
1.2127371809
1.2145416446
1.2162668072
1.2178815376
1.2193570257
1.2206676188
1.2217915261
1.2227109615
1.2234120919
1.2238849742
1.2241232237
1.2235412366
1.1747592007
1.1749255628
1.1750884491
1.1754108661
1.1758861766
1.1765043103
1.1772516285
1.1781108945
1.1790612833
1.1800784301
1.1811347989
1.1822002461
1.1832428026
1.1842300123
1.1851306132
1.1859166194
1.1865659616
1.1870653267
1.1874128193
1.1876195352
1.1877083480
1.1868845842
1.1947704063
1.1939681112
1.1939490177
1.1939382877
1.1939636661
1.1940484382
1.1942103221
1.1944624685
1.1948148564
1.1952755250
1.1958514513
1.1965488231
1.1973729136
1.1983278164
1.1994157934
1.2006365175
1.2019864815
1.2034583254
1.2050402627
1.2067162305
1.2084651008
1.2102619755
1.2120783261
1.2138830526
1.2156438471
1.2173283835
1.2189057328
1.2203473501
1.2216278979
1.2227259501
1.2236241143
1.2243089261
1.2247707672
1.2250035008
1.2244473153
1.1719947789
1.1721455245
1.1723149205
1.1726502486
1.1731445551
1.1737872686
1.1745640208
1.1754565461
1.1764426538
1.1774962135
1.1785874715
1.1796835607
1.1807493222
1.1817487378
1.1826468321
1.1834122031
1.1840205169
1.1844587282
1.1847299247
1.1848577334
1.1848877510
1.1840895774
1.1972055044
1.1964543836
1.1963837014
1.1962985457
1.1962433185
1.1962497338
1.1963383445
1.1965221347
1.1968096665
1.1972073538
1.1977208392
1.1983554275
1.1991159730
1.2000065617
1.2010297282
1.2021856037
1.2034712485
1.2048798804
1.2064002766
1.2080169253
1.2097089831
1.2114518291
1.2132171407
1.2149740993
1.2166904810
1.2183340640
1.2198740533
1.2212820951
1.2225330789
1.2236058549
1.2244833382
1.2251523546
1.2256035474
1.2258309832
1.2253080632
1.1694208136
1.1695532493
1.1697291045
1.1700772305
1.1705903798
1.1712575169
1.1720635862
1.1729893203
1.1740111597
1.1751011503
1.1762271175
1.1773531510
1.1784403392
1.1794480986
1.1803361006
1.1810674400
1.1816127989
1.1819565087
1.1821051043
1.1820976968
1.1820161943
1.1812492454
1.1997344998
1.1990337690
1.1988739183
1.1986763007
1.1985115587
1.1984208522
1.1984253520
1.1985351400
1.1987550802
1.1990883979
1.1995384407
1.2001091192
1.2008046587
1.2016291126
1.2025853579
1.2036740956
1.2048930773
1.2062362286
1.2076929755
1.2092484491
1.2108822240
1.2125699301
1.2142835318
1.2159923659
1.2176643594
1.2192673476
1.2207706081
1.2221458984
1.2233682509
1.2244167032
1.2252743927
1.2259283583
1.2263694422
1.2265918714
1.2261082747
1.1670557380
1.1671684894
1.1673508325
1.1677118367
1.1682440018
1.1689358968
1.1697718673
1.1707317350
1.1717906477
1.1729188463
1.1740816644
1.1752398681
1.1763501291
1.1773661431
1.1782404747
1.1789273780
1.1793876861
1.1795967146
1.1795572844
1.1793215857
1.1790229237
1.1782918320
1.2023838411
1.2017321424
1.2014060481
1.2010322828
1.2007175857
1.2005085157
1.2004200953
1.2004539811
1.2006075868
1.2008788023
1.2012675454
1.2017758426
1.2024071771
1.2031656525
1.2040546441
1.2050755954
1.2062271163
1.2075039718
1.2088963790
1.2103901163
1.2119652937
1.2135978843
1.2152600844
1.2169214166
1.2185498854
1.2201133649
1.2215811513
1.2229250442
1.2241201384
1.2251455762
1.2259846367
1.2266244996
1.2270561471
1.2272739260
1.2268339671
1.1649129580
1.1650058601
1.1651947472
1.1655688107
1.1661203682
1.1668376996
1.1677046944
1.1687004331
1.1697989634
1.1709689198
1.1721732833
1.1733694832
1.1745094799
1.1755402844
1.1764050869
1.1770451174
1.1774036766
1.1774342617
1.1771176282
1.1764986094
1.1757597415
1.1750680235
1.2052305701
1.2046262439
1.2039673533
1.2033104217
1.2027923469
1.2024452397
1.2022617259
1.2022252273
1.2023202345
1.2025368688
1.2028705931
1.2033213053
1.2038918964
1.2045868141
1.2054102339
1.2063646013
1.2074495963
1.2086609945
1.2099899207
1.2114228010
1.2129403924
1.2145190524
1.2161312578
1.2177466551
1.2193333165
1.2208591063
1.2222932900
1.2236076491
1.2247772715
1.2257813313
1.2266031773
1.2272300656
1.2276530651
1.2278666055
1.2274726285
1.1630013470
1.1630753042
1.1632707985
1.1636581350
1.1642295378
1.1649731349
1.1658725544
1.1669063927
1.1680479283
1.1692646004
1.1705175066
1.1717612301
1.1729433888
1.1740041958
1.1748761296
1.1754832502
1.1757412205
1.1755600926
1.1748569796
1.1735985218
1.1719250294
1.1712747748
1.2084587838
1.2079001261
1.2065317282
1.2054157564
1.2046345577
1.2041438903
1.2038796295
1.2037907220
1.2038443856
1.2040209059
1.2043108972
1.2047124937
1.2052286498
1.2058647994
1.2066264257
1.2075173467
1.2085385737
1.2096870650
1.2109550681
1.2123294339
1.2137918185
1.2153189904
1.2168836880
1.2184556867
1.2200030868
1.2214937085
1.2228967448
1.2241839078
1.2253302217
1.2263148313
1.2271210955
1.2277362909
1.2281515281
1.2283612870
1.2280135631
1.1613258062
1.1613826170
1.1615847311
1.1619854634
1.1625770392
1.1633475911
1.1642807201
1.1653548686
1.1665430102
1.1678120333
1.1691220244
1.1704258908
1.1716684093
1.1727846944
1.1736978744
1.1743140608
1.1745132446
1.1741338611
1.1729499088
1.1706526967
1.1669070222
1.1662986932
1.2124823499
1.2119676505
1.2090054779
1.2071626039
1.2060843329
1.2054881601
1.2051927881
1.2050928798
1.2051343024
1.2052922906
1.2055550132
1.2059195676
1.2063902785
1.2069746609
1.2076802561
1.2085127297
1.2094747163
1.2105645145
1.2117757152
1.2130954942
1.2145064010
1.2159857408
1.2175064957
1.2190385489
1.2205500087
1.2220086273
1.2233834930
1.2246462115
1.2257717012
1.2267390315
1.2275315230
1.2281364292
1.2285448644
1.2287513323
1.2284480949
1.1598880480
1.1599302399
1.1601388668
1.1605528755
1.1611645825
1.1619622795
1.1629297815
1.1640457380
1.1652833562
1.1666097849
1.1679853213
1.1693630826
1.1706879583
1.1718945922
1.1729039001
1.1736141673
1.1738802258
1.1734640896
1.1719117079
1.1682385443
1.1601274143
1.1595676123
1.2182131533
1.2177400178
1.2110515727
1.2081589101
1.2068831404
1.2063276970
1.2061137666
1.2060786441
1.2061545464
1.2063208747
1.2065758003
1.2069179210
1.2073541098
1.2078954100
1.2085523600
1.2093330054
1.2102418947
1.2112788335
1.2124384617
1.2137090295
1.2150735933
1.2165099379
1.2179913121
1.2194877070
1.2209672372
1.2223975735
1.2237476846
1.2249890494
1.2260964543
1.2270488623
1.2278295213
1.2284256287
1.2288282740
1.2290319622
1.2287695631
1.1586874205
1.1587180872
1.1589329348
1.1593597128
1.1599908985
1.1608150660
1.1618164447
1.1629742054
1.1642622809
1.1656488645
1.1670957472
1.1685584684
1.1699861147
1.1713209751
1.1724992247
1.1734516307
1.1741062861
1.1744004067
1.1743182610
1.1740133928
1.1742868753
1.1816333659
1.1864773469
1.1791913750
1.1937430333
1.2037244653
1.2053850716
1.2059466200
1.2062047424
1.2063838201
1.2065444918
1.2067065644
1.2068832912
1.2070912504
1.2073558250
1.2076900396
1.2081031334
1.2086108253
1.2092275754
1.2099642613
1.2108275517
1.2118188707
1.2129336100
1.2141613943
1.2154857888
1.2168849601
1.2183323775
1.2197981283
1.2212503251
1.2226565622
1.2239856906
1.2252090581
1.2263013104
1.2272412879
1.2280121448
1.2286010009
1.2289988990
1.2292003293
1.2289735001
1.1577215311
1.1577442017
1.1579647437
1.1584032822
1.1590524903
1.1599012886
1.1609344296
1.1621317813
1.1634682711
1.1649135405
1.1664314509
1.1679807248
1.1695154918
1.1709861119
1.1723422332
1.1735373417
1.1745373174
1.1753401075
1.1760163677
1.1768001214
1.1783452566
1.1828571800
1.1866332489
1.1793017426
1.1906364576
1.1986451383
1.2022450324
1.2042524050
1.2054421089
1.2061929123
1.2066966280
1.2070598199
1.2073489959
1.2076118368
1.2078936641
1.2082277823
1.2086272721
1.2091103295
1.2096956183
1.2103969371
1.2112230225
1.2121767519
1.2132545625
1.2144470637
1.2157383863
1.2171070011
1.2185265588
1.2199672254
1.2213971185
1.2227837706
1.2240959312
1.2253048286
1.2263849743
1.2273150846
1.2280782115
1.2286613842
1.2290555860
1.2292552785
1.2290574869
1.1569871304
1.1570056618
1.1572311121
1.1576798393
1.1583447040
1.1592149652
1.1602758950
1.1615080699
1.1628874242
1.1643850678
1.1659669148
1.1675946946
1.1692269722
1.1708205324
1.1723344568
1.1737356578
1.1750075298
1.1761669081
1.1772912880
1.1785639505
1.1803587798
1.1833567038
1.1859816219
1.1853559840
1.1916511626
1.1971871323
1.2007804225
1.2032050989
1.2048324555
1.2059283688
1.2066740280
1.2071946929
1.2075790954
1.2078930502
1.2081933797
1.2085298786
1.2089224836
1.2093887633
1.2099511221
1.2106259316
1.2114235399
1.2123482421
1.2133979590
1.2145635982
1.2158296850
1.2171749512
1.2185732103
1.2199947117
1.2214075967
1.2227793641
1.2240786920
1.2252767157
1.2263478326
1.2272706459
1.2280281060
1.2286071487
1.2289986888
1.2291971507
1.2290210136
1.1564811371
1.1564996130
1.1567289374
1.1571857356
1.1578630060
1.1587502667
1.1598332007
1.1610929492
1.1625062362
1.1640453505
1.1656778346
1.1673677072
1.1690767340
1.1707659798
1.1724001936
1.1739532547
1.1754156079
1.1768077037
1.1781970044
1.1797169331
1.1815811909
1.1840176721
1.1864166151
1.1880614734
1.1924122595
1.1966707904
1.2000059863
1.2025141575
1.2043309479
1.2056155273
1.2065115999
1.2071386578
1.2075914153
1.2079443835
1.2082600203
1.2085990835
1.2089892588
1.2094454588
1.2099926947
1.2106492600
1.2114276000
1.2123331952
1.2133642055
1.2145118588
1.2157609451
1.2170903946
1.2184741631
1.2198825928
1.2212838747
1.2226455131
1.2239361568
1.2251268857
1.2261920149
1.2271100545
1.2278638630
1.2284402852
1.2288301648
1.2290278817
1.2288656090
1.1562025367
1.1562251803
1.1564570940
1.1569192907
1.1576048077
1.1585032692
1.1596005661
1.1608781896
1.1623134819
1.1638793867
1.1655443181
1.1672736062
1.1690308407
1.1707794202
1.1724869862
1.1741305810
1.1757030026
1.1772237781
1.1787501292
1.1803833323
1.1822607382
1.1844862714
1.1868482913
1.1892141113
1.1927741211
1.1963905002
1.1994993554
1.2019857280
1.2038696351
1.2052430103
1.2062185010
1.2069055027
1.2073984748
1.2077752359
1.2081005891
1.2084404138
1.2088292020
1.2092804117
1.2098203482
1.2104686426
1.2112384396
1.2121352288
1.2131572272
1.2142959294
1.2155363310
1.2168575228
1.2182335932
1.2196349917
1.2210299931
1.2223861542
1.2236721446
1.2248590344
1.2259210951
1.2268367713
1.2275888446
1.2281640770
1.2285532403
1.2287506654
1.2285945141
1.1561522679
1.1561832004
1.1564164678
1.1568814726
1.1575712058
1.1584752437
1.1595794348
1.1608652221
1.1623099774
1.1638867747
1.1655642104
1.1673079170
1.1690819542
1.1708503309
1.1725814519
1.1742531411
1.1758585060
1.1774158213
1.1789768797
1.1806285904
1.1824798043
1.1846061309
1.1869353878
1.1894736405
1.1927238560
1.1960563574
1.1990313713
1.2014771668
1.2033684867
1.2047668476
1.2057690389
1.2064781554
1.2069873139
1.2073750813
1.2077070498
1.2080507682
1.2084438813
1.2088989445
1.2094419933
1.2100929945
1.2108646294
1.2117623960