<VTKFile type="UnstructuredGrid" version="0.1">
	<UnstructuredGrid>
		<Piece NumberOfPoints="13548" NumberOfCells="3387">
			<CellData>
				<DataArray type="Int32" Name="ghost" NumberOfComponents="1" Format="ascii">
1
1
1
1
1
1
1
1
1
1
1
1
1
1
1
1
1
1
1
1
1
1
1
1
1
1
1
1
1
1
1
1
1
1
1
1
1
1
1
1
1
1
1
1
1
1
1
1
1
1
1
1
1
1
1
1
1
1
0
0
0
0
0
0
0
0
0
0
0
0
0
0
0
0
0
0
0
0
1
1
0
0
0
0
0
0
0
0
0
0
0
0
0
0
0
0
0
0
0
0
0
0
0
0
0
0
0
0
0
0
0
0
0
1
1
0
0
0
0
0
0
0
0
0
0
0
0
0
0
0
0
0
0
0
0
1
1
0
0
0
0
0
0
0
0
0
0
0
0
0
0
0
0
0
0
0
0
0
0
0
0
0
0
0
0
0
0
0
0
0
1
1
0
0
0
0
0
0
0
0
0
0
0
0
0
0
0
0
0
0
0
0
1
1
0
0
0
0
0
0
0
0
0
0
0
0
0
0
0
0
0
0
0
0
0
0
0
0
0
0
0
0
0
0
0
0
0
1
1
0
0
0
0
0
0
0
0
0
0
0
0
0
0
0
0
0
0
0
0
1
1
0
0
0
0
0
0
0
0
0
0
0
0
0
0
0
0
0
0
0
0
0
0
0
0
0
0
0
0
0
0
0
0
0
1
1
0
0
0
0
0
0
0
0
0
0
0
0
0
0
0
0
0
0
0
0
1
1
0
0
0
0
0
0
0
0
0
0
0
0
0
0
0
0
0
0
0
0
0
0
0
0
0
0
0
0
0
0
0
0
0
1
1
0
0
0
0
0
0
0
0
0
0
0
0
0
0
0
0
0
0
0
0
1
1
0
0
0
0
0
0
0
0
0
0
0
0
0
0
0
0
0
0
0
0
0
0
0
0
0
0
0
0
0
0
0
0
0
1
1
0
0
0
0
0
0
0
0
0
0
0
0
0
0
0
0
0
0
0
0
1
1
0
0
0
0
0
0
0
0
0
0
0
0
0
0
0
0
0
0
0
0
0
0
0
0
0
0
0
0
0
0
0
0
0
1
1
0
0
0
0
0
0
0
0
0
0
0
0
0
0
0
0
0
0
0
0
1
1
0
0
0
0
0
0
0
0
0
0
0
0
0
0
0
0
0
0
0
0
0
0
0
0
0
0
0
0
0
0
0
0
0
1
1
0
0
0
0
0
0
0
0
0
0
0
0
0
0
0
0
0
0
0
0
1
1
0
0
0
0
0
0
0
0
0
0
0
0
0
0
0
0
0
0
0
0
0
0
0
0
0
0
0
0
0
0
0
0
0
1
1
0
0
0
0
0
0
0
0
0
0
0
0
0
0
0
0
0
0
0
0
1
1
0
0
0
0
0
0
0
0
0
0
0
0
0
0
0
0
0
0
0
0
0
0
0
0
0
0
0
0
0
0
0
0
0
1
1
0
0
0
0
0
0
0
0
0
0
0
0
0
0
0
0
0
0
0
0
1
1
0
0
0
0
0
0
0
0
0
0
0
0
0
0
0
0
0
0
0
0
0
0
0
0
0
0
0
0
0
0
0
0
0
1
1
0
0
0
0
0
0
0
0
0
0
0
0
0
0
0
0
0
0
0
0
1
1
0
0
0
0
0
0
0
0
0
0
0
0
0
0
0
0
0
0
0
0
0
0
0
0
0
0
0
0
0
0
0
0
0
1
1
0
0
0
0
0
0
0
0
0
0
0
0
0
0
0
0
0
0
0
0
1
1
0
0
0
0
0
0
0
0
0
0
0
0
0
0
0
0
0
0
0
0
0
0
0
0
0
0
0
0
0
0
0
0
0
1
1
0
0
0
0
0
0
0
0
0
0
0
0
0
0
0
0
0
0
0
0
1
1
0
0
0
0
0
0
0
0
0
0
0
0
0
0
0
0
0
0
0
0
0
0
0
0
0
0
0
0
0
0
0
0
0
1
1
0
0
0
0
0
0
0
0
0
0
0
0
0
0
0
0
0
0
0
0
1
1
0
0
0
0
0
0
0
0
0
0
0
0
0
0
0
0
0
0
0
0
0
0
0
0
0
0
0
0
0
0
0
0
0
1
1
0
0
0
0
0
0
0
0
0
0
0
0
0
0
0
0
0
0
0
0
1
1
0
0
0
0
0
0
0
0
0
0
0
0
0
0
0
0
0
0
0
0
0
0
0
0
0
0
0
0
0
0
0
0
0
1
1
0
0
0
0
0
0
0
0
0
0
0
0
0
0
0
0
0
0
0
0
1
1
0
0
0
0
0
0
0
0
0
0
0
0
0
0
0
0
0
0
0
0
0
0
0
0
0
0
0
0
0
0
0
0
0
1
1
0
0
0
0
0
0
0
0
0
0
0
0
0
0
0
0
0
0
0
0
1
1
0
0
0
0
0
0
0
0
0
0
0
0
0
0
0
0
0
0
0
0
0
0
0
0
0
0
0
0
0
0
0
0
0
1
1
0
0
0
0
0
0
0
0
0
0
0
0
0
0
0
0
0
0
0
0
1
1
0
0
0
0
0
0
0
0
0
0
0
0
0
0
0
0
0
0
0
0
0
0
0
0
0
0
0
0
0
0
0
0
0
1
1
0
0
0
0
0
0
0
0
0
0
0
0
0
0
0
0
0
0
0
0
1
1
0
0
0
0
0
0
0
0
0
0
0
0
0
0
0
0
0
0
0
0
0
0
0
0
0
0
0
0
0
0
0
0
0
1
1
0
0
0
0
0
0
0
0
0
0
0
0
0
0
0
0
0
0
0
0
1
1
0
0
0
0
0
0
0
0
0
0
0
0
0
0
0
0
0
0
0
0
0
0
0
0
0
0
0
0
0
0
0
0
0
1
1
0
0
0
0
0
0
0
0
0
0
0
0
0
0
0
0
0
0
0
0
1
1
0
0
0
0
0
0
0
0
0
0
0
0
0
0
0
0
0
0
0
0
0
0
0
0
0
0
0
0
0
0
0
0
0
1
1
0
0
0
0
0
0
0
0
0
0
0
0
0
0
0
0
0
0
0
0
1
1
0
0
0
0
0
0
0
0
0
0
0
0
0
0
0
0
0
0
0
0
0
0
0
0
0
0
0
0
0
0
0
0
0
1
1
0
0
0
0
0
0
0
0
0
0
0
0
0
0
0
0
0
0
0
0
1
1
0
0
0
0
0
0
0
0
0
0
0
0
0
0
0
0
0
0
0
0
0
0
0
0
0
0
0
0
0
0
0
0
0
1
1
0
0
0
0
0
0
0
0
0
0
0
0
0
0
0
0
0
0
0
0
0
1
1
0
0
0
0
0
0
0
0
0
0
0
0
0
0
0
0
0
0
0
0
0
0
0
0
0
0
0
0
0
0
0
0
0
0
1
1
0
0
0
0
0
0
0
0
0
0
0
0
0
0
0
0
0
0
0
0
0
0
0
0
0
0
0
0
0
0
0
0
0
0
0
0
0
0
0
0
0
0
0
0
0
0
0
0
0
0
0
0
0
0
0
0
0
1
1
0
0
0
0
0
0
0
0
0
0
0
0
0
0
0
0
0
0
0
0
0
0
0
0
0
0
0
0
0
0
0
0
0
0
0
0
0
0
0
0
0
0
0
0
0
0
0
0
0
0
0
0
0
0
0
0
0
1
1
0
0
0
0
0
0
0
0
0
0
0
0
0
0
0
0
0
0
0
0
0
0
0
0
0
0
0
0
0
0
0
0
0
0
0
0
0
0
0
0
0
0
0
0
0
0
0
0
0
0
0
0
0
0
0
0
0
1
1
0
0
0
0
0
0
0
0
0
0
0
0
0
0
0
0
0
0
0
0
0
0
0
0
0
0
0
0
0
0
0
0
0
0
0
0
0
0
0
0
0
0
0
0
0
0
0
0
0
0
0
0
0
0
0
0
0
1
1
0
0
0
0
0
0
0
0
0
0
0
0
0
0
0
0
0
0
0
0
0
0
0
0
0
0
0
0
0
0
0
0
0
0
0
0
0
0
0
0
0
0
0
0
0
0
0
0
0
0
0
0
0
0
0
0
0
1
1
0
0
0
0
0
0
0
0
0
0
0
0
0
0
0
0
0
0
0
0
0
0
0
0
0
0
0
0
0
0
0
0
0
0
0
0
0
0
0
0
0
0
0
0
0
0
0
0
0
0
0
0
0
0
0
0
0
1
1
0
0
0
0
0
0
0
0
0
0
0
0
0
0
0
0
0
0
0
0
0
0
0
0
0
0
0
0
0
0
0
0
0
0
0
0
0
0
0
0
0
0
0
0
0
0
0
0
0
0
0
0
0
0
0
0
0
1
1
0
0
0
0
0
0
0
0
0
0
0
0
0
0
0
0
0
0
0
0
0
0
0
0
0
0
0
0
0
0
0
0
0
0
0
0
0
0
0
0
0
0
0
0
0
0
0
0
0
0
0
0
0
0
0
0
0
1
1
0
0
0
0
0
0
0
0
0
0
0
0
0
0
0
0
0
0
0
0
0
0
0
0
0
0
0
0
0
0
0
0
0
0
0
0
0
0
0
0
0
0
0
0
0
0
0
0
0
0
0
0
0
0
0
0
0
1
1
0
0
0
0
0
0
0
0
0
0
0
0
0
0
0
0
0
0
0
0
0
0
0
0
0
0
0
0
0
0
0
0
0
0
0
0
0
0
0
0
0
0
0
0
0
0
0
0
0
0
0
0
0
0
0
0
0
1
1
0
0
0
0
0
0
0
0
0
0
0
0
0
0
0
0
0
0
0
0
0
1
1
0
0
0
0
0
0
0
0
0
0
0
0
0
0
0
0
0
0
0
0
0
0
0
0
0
0
0
0
0
0
0
0
0
0
1
1
0
0
0
0
0
0
0
0
0
0
0
0
0
0
0
0
0
0
0
0
1
1
0
0
0
0
0
0
0
0
0
0
0
0
0
0
0
0
0
0
0
0
0
0
0
0
0
0
0
0
0
0
0
0
0
1
1
0
0
0
0
0
0
0
0
0
0
0
0
0
0
0
0
0
0
0
0
1
1
0
0
0
0
0
0
0
0
0
0
0
0
0
0
0
0
0
0
0
0
0
0
0
0
0
0
0
0
0
0
0
0
0
1
1
0
0
0
0
0
0
0
0
0
0
0
0
0
0
0
0
0
0
0
0
1
1
0
0
0
0
0
0
0
0
0
0
0
0
0
0
0
0
0
0
0
0
0
0
0
0
0
0
0
0
0
0
0
0
0
1
1
0
0
0
0
0
0
0
0
0
0
0
0
0
0
0
0
0
0
0
0
1
1
0
0
0
0
0
0
0
0
0
0
0
0
0
0
0
0
0
0
0
0
0
0
0
0
0
0
0
0
0
0
0
0
0
1
1
0
0
0
0
0
0
0
0
0
0
0
0
0
0
0
0
0
0
0
0
1
1
0
0
0
0
0
0
0
0
0
0
0
0
0
0
0
0
0
0
0
0
0
0
0
0
0
0
0
0
0
0
0
0
0
1
1
0
0
0
0
0
0
0
0
0
0
0
0
0
0
0
0
0
0
0
0
1
1
0
0
0
0
0
0
0
0
0
0
0
0
0
0
0
0
0
0
0
0
0
0
0
0
0
0
0
0
0
0
0
0
0
1
1
0
0
0
0
0
0
0
0
0
0
0
0
0
0
0
0
0
0
0
0
1
1
0
0
0
0
0
0
0
0
0
0
0
0
0
0
0
0
0
0
0
0
0
0
0
0
0
0
0
0
0
0
0
0
0
1
1
0
0
0
0
0
0
0
0
0
0
0
0
0
0
0
0
0
0
0
0
1
1
0
0
0
0
0
0
0
0
0
0
0
0
0
0
0
0
0
0
0
0
0
0
0
0
0
0
0
0
0
0
0
0
0
1
1
0
0
0
0
0
0
0
0
0
0
0
0
0
0
0
0
0
0
0
0
1
1
0
0
0
0
0
0
0
0
0
0
0
0
0
0
0
0
0
0
0
0
0
0
0
0
0
0
0
0
0
0
0
0
0
1
1
0
0
0
0
0
0
0
0
0
0
0
0
0
0
0
0
0
0
0
0
1
1
0
0
0
0
0
0
0
0
0
0
0
0
0
0
0
0
0
0
0
0
0
0
0
0
0
0
0
0
0
0
0
0
0
1
1
0
0
0
0
0
0
0
0
0
0
0
0
0
0
0
0
0
0
0
0
1
1
0
0
0
0
0
0
0
0
0
0
0
0
0
0
0
0
0
0
0
0
0
0
0
0
0
0
0
0
0
0
0
0
0
1
1
0
0
0
0
0
0
0
0
0
0
0
0
0
0
0
0
0
0
0
0
1
1
0
0
0
0
0
0
0
0
0
0
0
0
0
0
0
0
0
0
0
0
0
0
0
0
0
0
0
0
0
0
0
0
0
1
1
0
0
0
0
0
0
0
0
0
0
0
0
0
0
0
0
0
0
0
0
1
1
0
0
0
0
0
0
0
0
0
0
0
0
0
0
0
0
0
0
0
0
0
0
0
0
0
0
0
0
0
0
0
0
0
1
1
0
0
0
0
0
0
0
0
0
0
0
0
0
0
0
0
0
0
0
0
1
1
0
0
0
0
0
0
0
0
0
0
0
0
0
0
0
0
0
0
0
0
0
0
0
0
0
0
0
0
0
0
0
0
0
1
1
0
0
0
0
0
0
0
0
0
0
0
0
0
0
0
0
0
0
0
0
1
1
0
0
0
0
0
0
0
0
0
0
0
0
0
0
0
0
0
0
0
0
0
0
0
0
0
0
0
0
0
0
0
0
0
1
1
0
0
0
0
0
0
0
0
0
0
0
0
0
0
0
0
0
0
0
0
1
1
0
0
0
0
0
0
0
0
0
0
0
0
0
0
0
0
0
0
0
0
0
0
0
0
0
0
0
0
0
0
0
0
0
1
1
0
0
0
0
0
0
0
0
0
0
0
0
0
0
0
0
0
0
0
0
1
1
0
0
0
0
0
0
0
0
0
0
0
0
0
0
0
0
0
0
0
0
0
0
0
0
0
0
0
0
0
0
0
0
0
1
1
0
0
0
0
0
0
0
0
0
0
0
0
0
0
0
0
0
0
0
0
1
1
0
0
0
0
0
0
0
0
0
0
0
0
0
0
0
0
0
0
0
0
0
0
0
0
0
0
0
0
0
0
0
0
0
1
1
0
0
0
0
0
0
0
0
0
0
0
0
0
0
0
0
0
0
0
0
1
1
0
0
0
0
0
0
0
0
0
0
0
0
0
0
0
0
0
0
0
0
0
0
0
0
0
0
0
0
0
0
0
0
0
1
1
0
0
0
0
0
0
0
0
0
0
0
0
0
0
0
0
0
0
0
0
1
1
0
0
0
0
0
0
0
0
0
0
0
0
0
0
0
0
0
0
0
0
0
0
0
0
0
0
0
0
0
0
0
0
0
1
1
0
0
0
0
0
0
0
0
0
0
0
0
0
0
0
0
0
0
0
0
1
1
0
0
0
0
0
0
0
0
0
0
0
0
0
0
0
0
0
0
0
0
0
0
0
0
0
0
0
0
0
0
0
0
0
1
1
1
1
1
1
1
1
1
1
1
1
1
1
1
1
1
1
1
1
1
1
1
1
1
1
1
1
1
1
1
1
1
1
1
1
1
1
1
1
1
1
1
1
1
1
1
1
1
1
1
1
1
1
1
1
1
1
				</DataArray>
				<DataArray type="Float64" Name="h" NumberOfComponents="1" Format="ascii">
1.1168525020
1.1187820633
1.1187750769
1.1187638241
1.1187504560
1.1187378093
1.1187290113
1.1187269308
1.1187340308
1.1187520271
1.1187816148
1.1188224796
1.1188732166
1.1189314591
1.1189940667
1.1190573078
1.1191173134
1.1191702949
1.1192127955
1.1192421799
1.1192566359
1.1192566359
1.2562349237
1.2548769434
1.2546603874
1.2542386805
1.2536266886
1.2528464283
1.2519266146
1.2509017580
1.2498116867
1.2487007429
1.2476166000
1.2466092090
1.2457294852
1.2450276563
1.2445514322
1.2443439643
1.2444415414
1.2448709810
1.2456470229
1.2467699829
1.2482238387
1.2499753221
1.2519745371
1.2541570647
1.2564475242
1.2587647450
1.2610274512
1.2631593757
1.2650936579
1.2667753822
1.2681622235
1.2692240984
1.2699413202
1.2703022618
1.2703022618
1.1187820633
1.1207159250
1.1206934176
1.1206514980
1.1205930172
1.1205218489
1.1204424843
1.1203594559
1.1202771530
1.1201994454
1.1201293569
1.1200690158
1.1200195232
1.1199810121
1.1199527663
1.1199333470
1.1199209790
1.1199137087
1.1199096131
1.1199072440
1.1199055993
1.1192566359
1.2548769434
1.2534401989
1.2532352670
1.2528363531
1.2522579738
1.2515216895
1.2506557021
1.2496940062
1.2486759286
1.2476453181
1.2466493249
1.2457372763
1.2449592670
1.2443643888
1.2439987846
1.2439034757
1.2441119354
1.2446474446
1.2455205210
1.2467267537
1.2482452377
1.2500381670
1.2520520618
1.2542205332
1.2564683585
1.2587169266
1.2608898641
1.2629177661
1.2647419387
1.2663160869
1.2676060685
1.2685888354
1.2692501526
1.2695821012
1.2703022618
1.1188481104
1.1207572411
1.1207385461
1.1207040818
1.1206563958
1.1205989378
1.1205356835
1.1204705932
1.1204074601
1.1203495643
1.1202993703
1.1202584976
1.1202275979
1.1202064205
1.1201939303
1.1201884296
1.1201879381
1.1201903438
1.1201936041
1.1201961858
1.1201970317
1.1195640586
1.2545362825
1.2531133435
1.2529102620
1.2525151294
1.2519425151
1.2512140388
1.2503579451
1.2494082301
1.2484041602
1.2473894426
1.2464109963
1.2455178323
1.2447596540
1.2441851131
1.2438398911
1.2437645573
1.2439921810
1.2445457145
1.2454354384
1.2466568548
1.2481890791
1.2499944230
1.2520195946
1.2541984198
1.2564558737
1.2587134906
1.2608949623
1.2629308559
1.2647623684
1.2663430320
1.2676385164
1.2686255924
1.2692898787
1.2696233543
1.2703343403
1.1189824683
1.1208431844
1.1208318737
1.1208118521
1.1207850821
1.1207541962
1.1207221772
1.1206918809
1.1206659507
1.1206465260
1.1206349894
1.1206319732
1.1206372556
1.1206498363
1.1206680556
1.1206897054
1.1207123977
1.1207337040
1.1207513412
1.1207636030
1.1207693198
1.1201680295
1.2538489680
1.2524525370
1.2522535079
1.2518666039
1.2513064395
1.2505946710
1.2497595367
1.2488349426
1.2478599512
1.2468779193
1.2459352599
1.2450803301
1.2443620533
1.2438282217
1.2435236298
1.2434879888
1.2437536096
1.2443428426
1.2452655525
1.2465170850
1.2480765918
1.2499066159
1.2519542369
1.2541537036
1.2564303872
1.2587061076
1.2609046843
1.2629566249
1.2648028918
1.2663966725
1.2677032426
1.2686990065
1.2693692837
1.2697058402
1.2703983884
1.1191799185
1.1209702095
1.1209694330
1.1209700188
1.1209731015
1.1209801575
1.1209927627
1.1210122074
1.1210395026
1.1210751664
1.1211190392
1.1211703419
1.1212275990
1.1212887286
1.1213511641
1.1214119499
1.1214680964
1.1215167020
1.1215551211
1.1215813836
1.1215941473
1.1210403050
1.2528270049
1.2514687901
1.2512759606
1.2509016123
1.2503603903
1.2496739564
1.2488704823
1.2479836836
1.2470522684
1.2461190348
1.2452296210
1.2444314082
1.2437721713
1.2432984509
1.2430537596
1.2430765752
1.2433981262
1.2440399125
1.2450112392
1.2463072187
1.2479070690
1.2497736813
1.2518546828
1.2540849504
1.2563904321
1.2586933678
1.2609177385
1.2629939479
1.2648625814
1.2664762732
1.2677996961
1.2688086797
1.2694880790
1.2698293280
1.2704939988
1.1194330846
1.1211332630
1.1211455915
1.1211718206
1.1212120676
1.1212663862
1.1213346207
1.1214161316
1.1215099140
1.1216144789
1.1217277511
1.1218471910
1.1219697500
1.1220919790
1.1222101543
1.1223203567
1.1224188102
1.1225019868
1.1225667533
1.1226107811
1.1226324901
1.1221417845
1.2514871903
1.2501774730
1.2499929162
1.2496352837
1.2491192281
1.2484663723
1.2477047469
1.2468677630
1.2459936159
1.2451243351
1.2443045262
1.2435802907
1.2429979176
1.2426023406
1.2424354381
1.2425341223
1.2429282594
1.2436382879
1.2446728467
1.2460267463
1.2476793112
1.2495938980
1.2517188580
1.2539898848
1.2563336744
1.2586729885
1.2609320021
1.2630409138
1.2649397762
1.2665804405
1.2679267245
1.2689536679
1.2696454708
1.2699931004
1.2706201839
1.1197329719
1.1213261622
1.1213534793
1.1214090483
1.1214918415
1.1216003111
1.1217323491
1.1218851370
1.1220553882
1.1222393342
1.1224327147
1.1226309697
1.1228292309
1.1230224524
1.1232055420
1.1233734244
1.1235213640
1.1236450548
1.1237407470
1.1238056511
1.1238378783
1.1234255850
1.2498506203
1.2485978654
1.2484235503
1.2480865625
1.2476015284
1.2469899747
1.2462797003
1.2455036862
1.2446994484
1.2439080412
1.2431727910
1.2425382435
1.2420488977
1.2417477728
1.2416748093
1.2418650824
1.2423468578
1.2431393623
1.2442504850
1.2456746892
1.2473914561
1.2493647312
1.2515437486
1.2538652176
1.2562567086
1.2586415966
1.2609442443
1.2630945392
1.2650317642
1.2667067502
1.2680821912
1.2691320727
1.2698397364
1.2701955246
1.2707749433
1.1200693309
1.1215417694
1.1215852194
1.1216723836
1.1218010286
1.1219679188
1.1221688862
1.1223988075
1.1226519759
1.1229221938
1.1232028583
1.1234872261
1.1237684422
1.1240396947
1.1242943538
1.1245260209
1.1247288392
1.1248975730
1.1250277210
1.1251159210
1.1251598947
1.1248403967
1.2479427011
1.2467532358
1.2465909790
1.2462782303
1.2458295505
1.2452663011
1.2446159503
1.2439109151
1.2431878677
1.2424866867
1.2418491975
1.2413181405
1.2409359689
1.2407435246
1.2407785765
1.2410741339
1.2416567057
1.2425441911
1.2437436872
1.2452492827
1.2470406719
1.2490825200
1.2513251094
1.2537063026
1.2561547210
1.2585943750
1.2609497607
1.2631503206
1.2651343319
1.2668512841
1.2682624665
1.2693405304
1.2700677019
1.2704335236
1.2709547282
1.1204317849
1.1217729337
1.1218329269
1.1219525087
1.1221282464
1.1223552233
1.1226272155
1.1229367933
1.1232758171
1.1236356339
1.1240072530
1.1243816828
1.1247499944
1.1251035011
1.1254339085
1.1257333517
1.1259947008
1.1262116368
1.1263787610
1.1264920134
1.1265486334
1.1263348642
1.2457914556
1.2446692124
1.2445206360
1.2442353002
1.2438276544
1.2433188224
1.2427358361
1.2421104194
1.2414782407
1.2408778238
1.2403492911
1.2399333760
1.2396702648
1.2395984289
1.2397532643
1.2401655983
1.2408600335
1.2418531117
1.2431511184
1.2447477428
1.2466229692
1.2487423226
1.2510572880
1.2535070050
1.2560212780
1.2585248057
1.2609420955
1.2632019316
1.2652413428
1.2670081748
1.2684619598
1.2695736947
1.2703242113
1.2707020364
1.2711538863
1.1208103788
1.1220128859
1.1220891517
1.1222406458
1.1224628039
1.1227491214
1.1230914273
1.1234800991
1.1239046712
1.1243541233
1.1248171380
1.1252825012
1.1257391984
1.1261766166
1.1265847077
1.1269540195
1.1272760021
1.1275430934
1.1277488359
1.1278883269
1.1279582122
1.1278611235
1.2434268214
1.2423731682
1.2422396571
1.2419843975
1.2416216819
1.2411723204
1.2406628095
1.2401240582
1.2395905939
1.2390994246
1.2386888141
1.2383973149
1.2382627007
1.2383208986
1.2386048428
1.2391430395
1.2399582184
1.2410654980
1.2424703340
1.2441660579
1.2461330272
1.2483377029
1.2507330255
1.2532595196
1.2558481519
1.2584243765
1.2609126352
1.2632407909
1.2653443059
1.2671690831
1.2686725545
1.2698236759
1.2706015395
1.2709934225
1.2713640613
1.1211959323
1.1222554528
1.1223471352
1.1225288933
1.1227951533
1.1231379910
1.1235474887
1.1240120452
1.1245190789
1.1250553918
1.1256074929
1.1261620529
1.1267060261
1.1272268710
1.1277127305
1.1281524606
1.1285359463
1.1288542089
1.1290995480
1.1292660445
1.1293496122
1.1293777618
1.2408804457
1.2398941301
1.2397767811
1.2395536505
1.2392388276
1.2388527394
1.2384212552
1.2379743739
1.2375453678
1.2371696163
1.2368833969
1.2367229831
1.2367236198
1.2369186283
1.2373383194
1.2380090072
1.2389514451
1.2401794017
1.2416975057
1.2434986828
1.2455638748
1.2478605431
1.2503431667
1.2529539492
1.2556250150
1.2582823388
1.2608502480
1.2632555316
1.2654318053
1.2673226726
1.2688830711
1.2700794674
1.2708888208
1.2712968798
1.2715735978
1.1215807362
1.1224956500
1.1226014317
1.1228109050
1.1231176522
1.1235125589
1.1239842343
1.1245193945
1.1251036364
1.1257218550
1.1263586160
1.1269986485
1.1276269847
1.1282291949
1.1287915842
1.1293012234
1.1297462816
1.1301161686
1.1304017213
1.1305957868
1.1306933667
1.1308526886
1.2381839500
1.2372611609
1.2371607611
1.2369711580
1.2367061897
1.2363858319
1.2360352515
1.2356834640
1.2353624193
1.2351057907
1.2349478132
1.2349224082
1.2350622864
1.2353981005
1.2359575807
1.2367646243
1.2378385605
1.2391915621
1.2408273209
1.2427385058
1.2449069788
1.2473011119
1.2498769660
1.2525785434
1.2553391982
1.2580853789
1.2607409955
1.2632317105
1.2654891130
1.2674541696
1.2690788085
1.2703264846
1.2711715517
1.2715979543
1.2717670525
1.1219586801
1.1227297612
1.1228480012
1.1230820082
1.1234247185
1.1238661014
1.1243936210
1.1249926670
1.1256473717
1.1263410568
1.1270566328
1.1277771136
1.1284857626
1.1291663363
1.1298032953
1.1303818380
1.1308882532
1.1313101105
1.1316365115
1.1318587849
1.1319707697
1.1322645366
1.2353683167
1.2345028772
1.2344199108
1.2342645940
1.2340504486
1.2337969228
1.2335284143
1.2332729100
1.2330610095
1.2329246784
1.2328960797
1.2330068026
1.2332870362
1.2337648658
1.2344653545
1.2354102972
1.2366170854
1.2380973853
1.2398533201
1.2418773767
1.2441523165
1.2466487173
1.2493225518
1.2521199865
1.2549758174
1.2578170968
1.2605675312
1.2631513888
1.2654979583
1.2675450933
1.2692411825
1.2705461012
1.2714311690
1.2718781648
1.2719248924
1.1223253306
1.1229553810
1.1230842532
1.1233392508
1.1237128813
1.1241944998
1.1247707874
1.1254262021
1.1261438103
1.1269057367
1.1276935660
1.1284888625
1.1292733113
1.1300289600
1.1307384368
1.1313849829
1.1319528232
1.1324274124
1.1327957676
1.1330473093
1.1331743500
1.1336033167
1.2324636601
1.2316473588
1.2315820513
1.2314612206
1.2312979568
1.2311110752
1.2309241301
1.2307640636
1.2306601454
1.2306427025
1.2307418600
1.2309869141
1.2314057164
1.2320237911
1.2328637125
1.2339453613
1.2352843598
1.2368913260
1.2387683449
1.2409066443
1.2432897754
1.2458891511
1.2486639248
1.2515611284
1.2545168540
1.2574589307
1.2603106092
1.2629946710
1.2654377489
1.2675741567
1.2693482705
1.2707159724
1.2716451056
1.2721149385
1.2720234313
1.1226780750
1.1231715470
1.1233091694
1.1235815037
1.1239808547
1.1244962768
1.1251140455
1.1258181019
1.1265908673
1.1274136697
1.1282671264
1.1291316498
1.1299875709
1.1308153634
1.1315958553
1.1323102505
1.1329405054
1.1334696255
1.1338820816
1.1341648349
1.1343081145
1.1348708118
1.2294976036
1.2287206604
1.2286731221
1.2285866597
1.2284737163
1.2283522785
1.2282449654
1.2281776633
1.2281783862
1.2282759969
1.2284986072
1.2288733651
1.2294259737
1.2301797203
1.2311542111
1.2323683818
1.2338370152
1.2355687055
1.2375635070
1.2398145365
1.2423054492
1.2450089050
1.2478857864
1.2508849193
1.2539438077
1.2569908787
1.2599489393
1.2627390573
1.2652848914
1.2675168190
1.2693747722
1.2708101761
1.2717869971
1.2722816686
1.2720349368
1.1230159201
1.1233785663
1.1235231082
1.1238092244
1.1242292406
1.1247722225
1.1254244169
1.1261696649
1.1269901696
1.1278668750
1.1287798114
1.1297085671
1.1306323776
1.1315303125
1.1323814646
1.1331649395
1.1338602083
1.1344474197
1.1349078838
1.1352252996
1.1353869338
1.1360800377
1.2264946849
1.2257463339
1.2257168362
1.2256647587
1.2256014563
1.2255437496
1.2255131475
1.2255344772
1.2256346032
1.2258413128
1.2261804841
1.2266772661
1.2273553301
1.2282365105
1.2293392130
1.2306797101
1.2322718120
1.2341232737
1.2362325196
1.2385928457
1.2411887934
1.2439945427
1.2469727735
1.2500741304
1.2532375399
1.2563920186
1.2594598298
1.2623601633
1.2650134454
1.2673457863
1.2692922784
1.2707994609
1.2718270253
1.2723482606
1.2719285068
1.1233394500
1.1235779958
1.1237277610
1.1240243651
1.1244603681
1.1250251449
1.1257052770
1.1264849102
1.1273464511
1.1282708782
1.1292380324
1.1302270357
1.1312163259
1.1321837911
1.1331069141
1.1339626944
1.1347279113
1.1353793817
1.1358944380
1.1362523510
1.1364360097
1.1372547579
1.2234757182
1.2227448727
1.2227343624
1.2227175485
1.2227038367
1.2227083329
1.2227511171
1.2228558251
1.2230480483
1.2233542920
1.2238001964
1.2244094598
1.2252035922
1.2262022790
1.2274230867
1.2288823333
1.2305910705
1.2325543044
1.2347708993
1.2372343483
1.2399302000
1.2428341846
1.2459107936
1.2491124826
1.2523795966
1.2556417127
1.2588204848
1.2618331090
1.2645965910
1.2670325061
1.2690707718
1.2706526684
1.2717332586
1.2722824088
1.2716715311
1.1236506294
1.1237724791
1.1239259604
1.1242301261
1.1246779662
1.1252594414
1.1259618058
1.1267698951
1.1276667284
1.1286337372
1.1296509873
1.1306975239
1.1317513414
1.1327894543
1.1337879678
1.1347218704
1.1355651097
1.1362906510
1.1368708166
1.1372787760
1.1374907517
1.1384294051
1.2204556297
1.2197316110
1.2197426275
1.2197636317
1.2198004815
1.2198658660
1.2199782668
1.2201603763
1.2204370133
1.2208333557
1.2213752349
1.2220857013
1.2229848934
1.2240909008
1.2254190162
1.2269843787
1.2287987387
1.2308632277
1.2331774387
1.2357352961
1.2385234664
1.2415192129
1.2446888177
1.2479865183
1.2513540537
1.2547215341
1.2580099692
1.2611345008
1.2640085970
1.2665491161
1.2686805559
1.2703386507
1.2714735519
1.2720514738
1.2712318416
1.1239524891
1.1239654893
1.1241213946
1.1244306150
1.1248867448
1.1254805768
1.1262003464
1.1270319363
1.1279593686
1.1289649427
1.1300293771
1.1311320736
1.1322510220
1.1333627997
1.1344425285
1.1354634676
1.1363967477
1.1372110414
1.1378724724
1.1383458208
1.1385969767
1.1396493261
1.2174405133
1.2167138262
1.2167517164
1.2168162780
1.2169075871
1.2170348787
1.2172148163
1.2174693930
1.2178233138
1.2183017699
1.2189295739
1.2197290533
1.2207198537
1.2219186818
1.2233403971
1.2249987928
1.2269040885
1.2290567550
1.2314562664
1.2340973753
1.2369678102
1.2400463688
1.2433010671
1.2466878756
1.2501498846
1.2536177123
1.2570117179
1.2602449854
1.2632274140
1.2658710693
1.2680949030
1.2698289315
1.2710182110
1.2716251463
1.2705806995
1.1242490873
1.1241613343
1.1243185915
1.1246307886
1.1250922726
1.1256948831
1.1264281079
1.1272791995
1.1282335510
1.1292747311
1.1303845536
1.1315432688
1.1327294077
1.1339197094
1.1350889374
1.1362091868
1.1372491450
1.1381730969
1.1389399004
1.1395031044
1.1398126474
1.1409726284
1.2144256946
1.2136888850
1.2137649712
1.2138849205
1.2140399744
1.2142346820
1.2144836386
1.2148083818
1.2152337636
1.2157853328
1.2164878476
1.2173633117
1.2184305608
1.2197069278
1.2212064568
1.2229421379
1.2249227031
1.2271479013
1.2296183123
1.2323292538
1.2352695998
1.2384196440
1.2417490823
1.2452155256
1.2487633582
1.2523236809
1.2558162229
1.2591520672
1.2622376079
1.2649801680
1.2672931682
1.2691008785
1.2703432027
1.2709786725
1.2696962621
1.1245451234
1.1243648175
1.1245225588
1.1248360540
1.1253005236
1.1259090316
1.1266525458
1.1275199736
1.1284984134
1.1295730901
1.1307273783
1.1319429103
1.1331994161
1.1344745812
1.1357437190
1.1369787808
1.1381470608
1.1392092224
1.1401166071
1.1408087956
1.1412120311
1.1424745448
1.2113915051
1.2106400270
1.2107779332
1.2109754890
1.2112112065
1.2114841249
1.2118071942
1.2122021545
1.2126946958
1.2133112679
1.2140774249
1.2150157386
1.2161449712
1.2174811920
1.2190425760
1.2208390019
1.2228764522
1.2251574049
1.2276825412
1.2304480585
1.2334440086
1.2366521730
1.2400438010
1.2435780447
1.2472005000
1.2508427221
1.2544238550
1.2578530980
1.2610335062
1.2638678471
1.2662641871
1.2681411895
1.2694336990
1.2700964249
1.2685673083
1.1248456032
1.1245809600
1.1247384959
1.1250519570
1.1255175289
1.1261296335
1.1268809039
1.1277621337
1.1287624157
1.1298690029
1.1310672838
1.1323408825
1.1336713984
1.1350384377
1.1364191070
1.1377868721
1.1391097728
1.1403473307
1.1414454840
1.1423295246
1.1428943819
1.1442565136
1.2082930843
1.2075264008
1.2077745446
1.2080887063
1.2084326625
1.2088013981
1.2092081314
1.2096764364
1.2102339943
1.2109090807
1.2117288308
1.2127171834
1.2138939421
1.2152755533
1.2168793560
1.2187185009
1.2207951891
1.2231140291
1.2256766481
1.2284802909
1.2315162428
1.2347676558
1.2382072356
1.2417955342
1.2454792567
1.2491903749
1.2528475119
1.2563581580
1.2596222970
1.2625384707
1.2650097413
1.2669494893
1.2682877637
1.2689756322
1.2671969640
1.1251558271
1.1248150291
1.1249718189
1.1252842040
1.1257493882
1.1263632419
1.1271201865
1.1280130885
1.1290332621
1.1301702862
1.1314120028
1.1327445576
1.1341522985
1.1356176117
1.1371209941
1.1386397726
1.1401463397
1.1416044738
1.1429621925
1.1441389620
1.1450022208
1.1464654253
1.2050406733
1.2042641780
1.2047238936
1.2052205445
1.2057142546
1.2062041937
1.2067089614
1.2072570266
1.2078800232
1.2086091927
1.2094741390
1.2105009934
1.2117115532
1.2131235807
1.2147544578
1.2166171183
1.2187149357
1.2210537945
1.2236365792
1.2264616878
1.2295215537
1.2328006669
1.2362730343
1.2399004491
1.2436305922
1.2473958037
1.2511142614
1.2546919695
1.2580262027
1.2610117466
1.2635471828
1.2655411232
1.2669192633
1.2676293495
1.2656053946
1.1254809312
1.1250721138
1.1252277402
1.1255382393
1.1260018561
1.1266159373
1.1273767517
1.1282793398
1.1293174423
1.1304831488
1.1317670501
1.1331582860
1.1346444743
1.1362121624
1.1378462933
1.1395309423
1.1412480136
1.1429750299
1.1446798544
1.1463086135
1.1477566417
1.1493310826
1.2014602938
1.2006892847
1.2015798330
1.2023670145
1.2030680082
1.2037116391
1.2043328161
1.2049698339
1.2056608570
1.2064418241
1.2073455930
1.2084012396
1.2096333076
1.2110621047
1.2127049052
1.2145743110
1.2166764260
1.2190186609
1.2216053820
1.2244360548
1.2275043246
1.2307959031
1.2342859342
1.2379372546
1.2416983688
1.2455019178
1.2492657106
1.2528945230
1.2562833628
1.2593238534
1.2619107806
1.2639486844
1.2653595229
1.2660881808
1.2638310474
1.1258255972
1.1253568741
1.1255110215
1.1258190200
1.1262801298
1.1268931706
1.1276562319
1.1285665427
1.1296203042
1.1308125310
1.1321361733
1.1335837070
1.1351463758
1.1368149386
1.1385807456
1.1404364123
1.1423779966
1.1444089835
1.1465493877
1.1488584076
1.1514892123
1.1532019639
1.1972100691
1.1964787833
1.1982894819
1.1995383666
1.2005172570
1.2013492435
1.2021057104
1.2028415920
1.2036043009
1.2044359434
1.2053740423
1.2064507872
1.2076944193
1.2091279891
1.2107693214
1.2126313227
1.2147232113
1.2170546404
1.2196311126
1.2224533796
1.2255162335
1.2288064639
1.2323001452
1.2359609517
1.2397380254
1.2435642205
1.2473570463
1.2510203241
1.2544472943
1.2575271115
1.2601515872
1.2622220447
1.2636574780
1.2644004956
1.2619302319
1.1261941021
1.1256736016
1.1258260496
1.1261311007
1.1265889898
1.1271999085
1.1279638520
1.1288799079
1.1299466622
1.1311613343
1.1325202492
1.1340188038
1.1356515894
1.1374133888
1.1392997065
1.1413074220
1.1434355566
1.1456845590
1.1480519567
1.1505183041
1.1530053395
1.1542710355
1.1686442586
1.1737717538
1.1966082775
1.1953472091
1.1961283658
1.1971914232
1.1982379789
1.1991952054
1.2000713131
1.2009038048
1.2017379478
1.2026185232
1.2035869960
1.2046794389
1.2059266973
1.2073554858
1.2089847884
1.2108282830
1.2128992958
1.2152088757
1.2177641254
1.2205670273
1.2236134054
1.2268909444
1.2303764431
1.2340341646
1.2378136792
1.2416479457
1.2454542272
1.2491356660
1.2525842651
1.2556874714
1.2583350439
1.2604260676
1.2618774702
1.2626302728
1.2599742368
1.1265899292
1.1260258439
1.1261764540
1.1264782818
1.1269324281
1.1275403435
1.1283033857
1.1292227152
1.1302989072
1.1315316848
1.1329200510
1.1344623460
1.1361565507
1.1380012742
1.1399966722
1.1421457004
1.1444563439
1.1469441287
1.1496360241
1.1525781992
1.1558526050
1.1593300809
1.1673851832
1.1723904160
1.1866929480
1.1901336229
1.1926006390
1.1944622493
1.1959423196
1.1971642891
1.1982147267
1.1991654902
1.2000790024
1.2010100826
1.2020070578
1.2031111858
1.2043570188
1.2057744039
1.2073845871
1.2092028767
1.2112461103
1.2135269228
1.2160539680
1.2188303648
1.2218527930
1.2251096524
1.2285782046
1.2322230335
1.2359939013
1.2398237401
1.2436296020
1.2473142124
1.2507688739
1.2538801165
1.2565366232
1.2586362969
1.2600949788
1.2608528618
1.2580444729
1.1270156072
1.1264162487
1.1265649614
1.1268633367
1.1273132158
1.1279170486
1.1286775447
1.1295974449
1.1306792146
1.1319246722
1.1333351825
1.1349117239
1.1366551535
1.1385673567
1.1406522490
1.1429172751
1.1453762469
1.1480526651
1.1509849523
1.1542358374
1.1579085912
1.1620945023
1.1682739426
1.1738915329
1.1824668776
1.1867379032
1.1898179581
1.1921347484
1.1939383288
1.1953886946
1.1966001314
1.1976630827
1.1986522246
1.1996307950
1.2006533061
1.2017657874
1.2030069445
1.2044094894
1.2059970718
1.2077878341
1.2098007221
1.2120503539
1.2145466294
1.2172936277
1.2202887460
1.2235208326
1.2269673325
1.2305928561
1.2343470980
1.2381628083
1.2419568451
1.2456317522
1.2490786559
1.2521839550
1.2548362435
1.2569333234
1.2583909640
1.2591493216
1.2562264232
1.1274729000
1.1268467340
1.1269935025
1.1272882389
1.1277333473
1.1283320970
1.1290882395
1.1300058187
1.1310887990
1.1323406921
1.1337647719
1.1353640981
1.1371417691
1.1391020956
1.1412514711
1.1435997421
1.1461628381
1.1489653643
1.1520440421
1.1554527170
1.1592677005
1.1635693290
1.1688322215
1.1741125774
1.1802461664
1.1844935423
1.1877603858
1.1903046654
1.1923131187
1.1939291670
1.1952671743
1.1964225541
1.1974757044
1.1984949099
1.1995389592
1.2006576663
1.2018929562
1.2032797788
1.2048448840
1.2066099987
1.2085945209
1.2108149872
1.2132822772
1.2160013070
1.2189699230
1.2221771445
1.2256002958
1.2292037057
1.2329367189
1.2367317347
1.2405054087
1.2441603138
1.2475878927
1.2506751711
1.2533116098
1.2553959712
1.2568449552
1.2575994684
1.2546025806
1.1279626044
1.1273183097
1.1274631062
1.1277540523
1.1281939335
1.1287865779
1.1295364760
1.1304485967
1.1315279939
1.1327794025
1.1342074668
1.1358167108
1.1376117511
1.1395984214
1.1417844602
1.1441805422
1.1468024288
1.1496724633
1.1528209495
1.1562872052
1.1601174091
1.1643503427
1.1691090979
1.1739699386
1.1789927125
1.1830436431
1.1863275563
1.1889681510
1.1910905568
1.1928117936
1.1942367654
1.1954590189
1.1965601877
1.1976108170
1.1986720153
1.1997958319
1.2010262476
1.2024000377
1.2039467525
1.2056906467
1.2076525839
1.2098493511
1.2122932771
1.2149895799
1.2179362559
1.2211221586
1.2245241826
1.2281060521
1.2318164725
1.2355873029
1.2393349614
1.2429622750
1.2463614094
1.2494207460
1.2520315058
1.2540944156
1.2555280557
1.2562748289
1.2532455586
1.1284845064
1.1278310192
1.1279738403
1.1282608937
1.1286951380
1.1292806709
1.1300223735
1.1309257316
1.1319964281
1.1332399393
1.1346617278
1.1362671640
1.1380616743
1.1400518241
1.1422458410
1.1446543985
1.1472923189
1.1501792718
1.1533398597
1.1568026649
1.1605950315
1.1647287387
1.1692166176
1.1737967456
1.1783216432
1.1822014393
1.1854436763
1.1881051170
1.1902735184
1.1920461003
1.1935182733
1.1947796565
1.1959107905
1.1969823835
1.1980562117
1.1991851182
1.2004140513
1.2017808465
1.2033167309
1.2050476176
1.2069952527
1.2091773978